% Model:              reactor_model_6-2_with_err.mph
% Version:            COMSOL 5.4.0.388
% Date:               Feb 18 2020, 15:43
% Dimension:          1
% Nodes:              2817
% Expressions:        1
% Description:        Line graph
% r                       Height
0                         0.22964412084943514
2.5798473197132997E-5     0.22964238592476474
5.159694639426599E-5      0.2296406510256025
7.729104102652226E-5      0.2296353402877722
1.0298513565877851E-4     0.2296300297857605
1.2857527403350774E-4     0.22961740012964596
1.5416541240823695E-4     0.22960477178856312
1.7965201512416107E-4     0.22959319167810427
2.051386178400852E-4      0.2295816126722791
2.3052210379422458E-4     0.22957165706498348
2.55905589748364E-4       0.2295617022618864
2.811863761429125E-4      0.22955392297817767
3.06467162537461E-4       0.2295461441635291
3.316456648866444E-4      0.22953983977272815
3.568241672358279E-4      0.22953353566180976
3.8190079937273956E-4     0.22952667744340768
4.069774315096512E-4      0.2295198195318214
4.319526055930388E-4      0.22950971793949917
4.569277796764264E-4      0.22949961703255659
4.8180190619748496E-4     0.22948406744104685
5.066760327185435E-4      0.22946851956905404
5.314617799573455E-4      0.22944693299114974
5.562475271961475E-4      0.22942534986393343
5.810797119998878E-4      0.2293994520753673
6.059118968036283E-4      0.22937355936715967
6.308278079217181E-4      0.22934691749068153
6.557437190398078E-4      0.22932028103986807
6.80743638771031E-4       0.2292970013967448
7.057435585022543E-4      0.2292737258716696
7.308277700972322E-4      0.22925653401999024
7.559119816922101E-4      0.22923934433978863
7.81080769356582E-4       0.22922817114695654
8.062495570209539E-4      0.2292169987861906
8.315032059186131E-4      0.22920857746956788
8.567568548162724E-4      0.22920015655862316
8.820956510726045E-4      0.22918904971583987
9.074344473289365E-4      0.22917794361059662
9.328586780340434E-4      0.22915895288266716
9.582829087391502E-4      0.22913996459217528
9.837928619511125E-4      0.22911057458068804
0.0010093028151630747     0.22908119081704828
0.0010348987799112114     0.22904292086632877
0.001060494744659348      0.22900466185605148
0.0010861739238757079     0.22896285150167267
0.001111853103092068      0.22892105436570917
0.0011374729807562428     0.228882758886214
0.0011630928584204176     0.22884447444838765
0.0011885762927201118     0.22881452092225182
0.001214059727019806      0.22878457397076168
0.0012394074446092204     0.2287632302592165
0.0012647551621986347     0.22874188967704495
0.0012899678858620373     0.2287249472764599
0.00131518060952544       0.2287080066904758
0.001340259058197784      0.22868864694071708
0.0013653375068701278     0.2286692895838943
0.0013902823956575367     0.22864125361105264
0.0014152272844449457     0.2286132230374528
0.0014400393246451228     0.22857360656733525
0.0014648513648453        0.22853400146563144
0.0014895312639677982     0.22848442694586443
0.0015142111630902964     0.22843487073900715
0.0015387596248766973     0.2283808494147935
0.0015633080866630982     0.2283268500934428
0.001587725811107079      0.22827550712756392
0.0016121435355510598     0.2282241840010781
0.001636431218918351      0.22818111457248408
0.001660718902285642      0.22813805885470473
0.0016848821852035979     0.22810465497396415
0.0017090454681215536     0.22807125901788824
0.0017332013950038738     0.22804396914077843
0.0017573573218861939     0.22801668428497537
0.0017815551964641967     0.22798892630272105
0.0018057530710421997     0.2279611734446133
0.0018299929661596609     0.22792614734458697
0.0018542328612771223     0.22789112971648814
0.0018785148499043196     0.2278445174101449
0.001902796838531517      0.22779792076407676
0.001927120993765462      0.2277396162670517
0.001951445148999407      0.22768133697396412
0.0019758115440640274     0.22761576813220877
0.0020001779391286474     0.22755023162065927
0.0020245866473750304     0.2274848054265315
0.002048995355621413      0.22741941148615263
0.002073446450528019      0.22736085622590682
0.0020978975454346246     0.22730232652602622
0.002122391100607534      0.22725372796868343
0.0021468846557804433     0.22720514656832508
0.0021714207449535323     0.22716436175151025
0.0021959568341266217     0.22712358859251058
0.002220535531161812      0.2270844576834122
0.0022451142281970024     0.22704533729984003
0.0022697356070844957     0.22700035311649286
0.0022943569859719885     0.22695538308664956
0.0023190088504658948     0.2268990613214704
0.0023436607149598014     0.22684276246922364
0.0023682531019429028     0.226774192294081
0.0023928454889260036     0.22670565696227715
0.0024173604904335778     0.2266288659795169
0.0024418754919411523     0.22655211932692754
0.002466313351483999      0.2264745407041415
0.0024907512110268456     0.226397007484698
0.002515112171349502      0.22632577740363924
0.002539473131672159      0.22625458531833453
0.002563757434755314      0.22619335334519539
0.0025880417378384693     0.22613214892010883
0.0026122496249013642     0.2260793848484824
0.0026364575119642592     0.22602664070364334
0.0026605892234670882     0.22597688612040534
0.0026847209349699173     0.2259271489559669
0.0027087767106162017     0.2258733022219426
0.0027328324862624866     0.22581947604662345
0.0027568125650014787     0.22575608645956138
0.0027807926437404713     0.22569272601813897
0.002804697263769511      0.22561805222368317
0.002828601883798551      0.22554341976161835
0.0028524312825654353     0.22546014725936353
0.00287626068133232       0.22537692688647845
0.002900015095537667      0.2252911354748335
0.0029237695097430135     0.2252053996961643
0.0029474491753426046     0.22512393189791455
0.002971128840942196      0.22504251408847467
0.002994786065556826      0.22496966365663745
0.0030184432901714563     0.22489685268490542
0.003042163061705545      0.2248326049949606
0.003065882833239633      0.22476838738883897
0.0030896665164417804     0.22470872138179515
0.0031134501996439284     0.22464908088060406
0.003137297966720738      0.22458754731353378
0.003161145733797548      0.22452604084948224
0.0031850577574196208     0.2244566063039421
0.003208969781041694      0.22438720679037827
0.003232946234344898      0.22430674330211375
0.003256922687648102      0.22422632776367638
0.003280963744234794      0.2241359321646881
0.0033050048008214862     0.2240455979770888
0.003329110634761794      0.22395033139279336
0.0033532164687021014     0.22385513352196082
0.003377387254535171      0.22376177013182869
0.0034015580403682407     0.22366847269505954
0.0034257939531035057     0.2235826124570636
0.0034500298658387703     0.2234968074855383
0.0034743310809572246     0.2234200061656094
0.003498632296075679      0.22334324835179936
0.0035229989895311327     0.22327213075517174
0.003547365682986587      0.22320104988684247
0.00357179803120695       0.22312931774824077
0.003596230379427313      0.22305762283856495
0.0036207285593158733     0.22297881426185556
0.003645226739204433      0.22290005111355987
0.003669768238850661      0.2228105980026759
0.003694309738496889      0.22272120439210707
0.0037187905935495576     0.22262235197524358
0.0037432714486022264     0.22252357321284802
0.0037676789405610344     0.22242027659050811
0.0037920864325198425     0.22231706097989296
0.00381642078123591       0.2222159695537324
0.003840755129951977      0.22211495570658407
0.0038650165546175955     0.2220214731189089
0.0038892779792832136     0.22192805635018797
0.003913466698433803      0.22184363335879612
0.003937655417584393      0.22175926330823034
0.003961771649100472      0.22168071120731195
0.003985887880616552      0.22160220434394082
0.004009931841725715      0.22152372632326625
0.004033975802834877      0.22144529330014914
0.00405794771011374       0.22136126744215107
0.004081919617392603      0.22127729359339068
0.004105819686768741      0.22118445209425477
0.004129719756144878      0.22109167496192508
0.0041535482028988045     0.22099042342608702
0.004177376649652731      0.22088924938788862
0.004201133688419797      0.22078347718732372
0.004224890727186863      0.22067779017622594
0.004248576571959227      0.220573317497195
0.00427226241673159       0.22046892800051598
0.004295877280860122      0.22037079897767034
0.0043194921449886525     0.2202727429136759
0.004343036241184857      0.22018274654876444
0.004366580337381062      0.22009281087012064
0.004390060312854927      0.22000878955978723
0.004413540288328794      0.21992482053671703
0.0044369964597806375     0.2198420089701191
0.004460452631232482      0.21975924793827356
0.004483891984066884      0.2196725647712452
0.0045073313369012845     0.21958593723221662
0.0045307538831775886     0.21949175519532385
0.0045541764294538935     0.21939763955843697
0.004577582181222756      0.21929529757852492
0.004600987932991617      0.21919303491752792
0.004624376902295146      0.21908521368638587
0.004647765871598676      0.2189774812094668
0.004671138070470262      0.21886910159054407
0.004694510269341847      0.2187608118943417
0.004717865709806275      0.21865687950196355
0.004741221150270703      0.2185530295354945
0.004764559844344107      0.21845622475001963
0.004787898538417511      0.21835949086486195
0.004811220498107503      0.21826911319743103
0.004834542457797496      0.218178796672503
0.0048578476951029875     0.21809122570047423
0.004881152932408478      0.21800371173035962
0.004904441459319803      0.21791417623136866
0.004927729986231128      0.21782470038628476
0.0049510018147300005     0.21772923818782328
0.004974273643228873      0.2176338443651998
0.00499752878528849       0.21753089985654384
0.005020783927348107      0.21742803571346214
0.005044022394933014      0.21731903913792056
0.005067260862517921      0.21721013344783346
0.0050904826675840925     0.21709894704266097
0.005113704472650264      0.21698785563912723
0.0051369109552689        0.21687924065918177
0.005160117437887537      0.21677071626270714
0.005183356497711213      0.2166679831094481
0.005206595557534889      0.21656533049808727
0.005229891282365942      0.2164688761583042
0.005253187007196995      0.216372492156146
0.005276539535204653      0.21627974851577803
0.005299892063212311      0.21618706939096893
0.005323301532902715      0.21609375692752775
0.005346711002593119      0.21600050966181653
0.005370177552810131      0.21590251443537148
0.005393644103027144      0.2158045915091828
0.005417167872953179      0.21569946535895163
0.005440691642879214      0.21559442320421443
0.00546427277203607       0.21548251071665053
0.005487853901192924      0.21537069428757386
0.005511492529442583      0.21525505104722736
0.005535131157692242      0.21513951096888836
0.0055588274252377345     0.2150247767594071
0.0055825236927832264     0.21491014418401572
0.005606277740169445      0.21480035611653525
0.005630031787555664      0.2146906607038616
0.005653843755670195      0.21458720075277427
0.005677655723784728      0.21448382241415026
0.005701525753858694      0.21438476767656017
0.00572539578393266       0.21428578715320476
0.005749324017541559      0.21418705110627567
0.005773252251150457      0.2140883885807545
0.005797238830214987      0.21398571073264633
0.005821225409279518      0.21388311271068
0.005845270476066439      0.21377383228980368
0.005869315542853362      0.21366464305223468
0.005893419239976326      0.21354877265779953
0.00591752293709929       0.2134330056704848
0.005941683097827128      0.21331331086123365
0.005965843258554965      0.21319372704854514
0.005990026299303444      0.2130748122692171
0.006014209340051924      0.21295600718889904
0.006038404164930252      0.21284191093198238
0.0060625989898085795     0.21272791529036075
0.0060868056045590285     0.21262004922769095
0.0061110122193094776     0.21251227243093818
0.00613523062967712       0.2124088545129735
0.006159449040044761      0.21230551804778017
0.006183679251777473      0.21220263861974323
0.006207909463510184      0.2120998395736703
0.006232151482358648      0.2119933909043399
0.006256393501207112      0.2118870286050063
0.006280647332924794      0.2117745542294423
0.006304901164642476      0.2116621770315383
0.006329166814985664      0.21154384037473237
0.006353432465328852      0.2114256121637506
0.0063777099400566285     0.2113041905551634
0.006401987414784404      0.21118288373991653
0.006426276719658671      0.21106258894772703
0.006450566024532938      0.21094240695068678
0.006474867165318386      0.2108268492914296
0.0064991683061038355     0.21071139534411543
0.006523481288567971      0.21060165609128517
0.006547794271032107      0.21049200972938062
0.006572119100945263      0.21038621765252444
0.006596443930858419      0.21028051133741923
0.006620780613993721      0.21017492701861143
0.0066451172971290235     0.21006942793806307
0.006669465839262409      0.209960269245498
0.006693814381395794      0.2098512019970141
0.006718174788306032      0.2097363646160487
0.006742535195216269      0.2096216291859554
0.006766907471995192      0.20950154294028644
0.006791279748774114      0.2093815690123096
0.006815657751369084      0.20925912361122573
0.006840035753964054      0.20913679554525827
0.006864413590493879      0.2090159546302995
0.0068887914270237055     0.20889522807331037
0.006913169097489591      0.20877912040363825
0.006937546767955476      0.2086631179242025
0.006961924272352202      0.20855249476292487
0.006986301776748928      0.20844196646867263
0.007010679115090145      0.20833478250768245
0.0070350564534313615     0.20822768708694037
0.007059433625712249      0.20812031796610472
0.007083810797993136      0.2080130375605709
0.007108187804214497      0.20790208431705903
0.007132564810435859      0.20779122617848858
0.007156941650599302      0.2076750298747738
0.0071813184907627454     0.2075589386056022
0.00720569516486265       0.2074382209994886
0.007230071838962555      0.20731761753796366
0.007254448347012569      0.20719526753824324
0.007278824855062583      0.207073035279981
0.007303201197057485      0.2069527394484788
0.007327577539052389      0.20683255745790996
0.007351953714994192      0.20671695349851035
0.007376329890935996      0.20660145427393595
0.0074007059008246966     0.20649086956173485
0.007425081910713396      0.2063803800980019
0.007449457754544578      0.20627272685848047
0.0074738335983757604     0.20616516341339045
0.007498209276162671      0.20605696314083025
0.007522584953949583      0.20594885349626818
0.007546960465687406      0.20583703581076834
0.0075713359774252295     0.2057253153069937
0.007595711323114769      0.20560862353482273
0.007620086668804308      0.20549203830831217
0.007644461848447167      0.20537145744544635
0.007668837028090026      0.20525099106382672
0.007693207316610156      0.20512941849242208
0.007717577605130286      0.20500796270979635
0.007741936317091135      0.20488883274225952
0.007766295029051984      0.20476981488769308
0.007790642121478304      0.20465539751309747
0.007814989213904625      0.20454108314409114
0.00783932469233908       0.2044313958310871
0.007863660170773536      0.20432180261686542
0.007887984040756208      0.20421461037902305
0.007912307910738882      0.2041075075868804
0.007936620177807215      0.20399947927494042
0.007960932444875547      0.2038915417765516
0.00798523311456428       0.2037799774348446
0.008009533784253014      0.20366851035332484
0.008033822862094399      0.20355252279775488
0.008058111939935785      0.20343664103752968
0.008082389431459287      0.20331740523738953
0.008106666922982791      0.20319828188747302
0.00813093283371529       0.20307856024229518
0.008155198744447789      0.202958952317446
0.008179453079913534      0.20284185303342403
0.008203707415379277      0.20272486247758703
0.008227950181099857      0.20261233592572525
0.008252192946820436      0.20249990936537493
0.008276424148314792      0.202391815435852
0.008300655349809147      0.20228381323424557
0.008324874992593708      0.2021778516554307
0.008349094635378269      0.20207197784093364
0.008373302724966685      0.2019649810054323
0.0083975108145551        0.2018580736551374
0.008421707356458464      0.2017476650790882
0.008445903898361825      0.20163735218323647
0.008470088898088583      0.20152289230520767
0.00849427389781534       0.20140853588375318
0.008518447360871307      0.20129126945703155
0.008542620823927274      0.20117411220887746
0.008566782755815603      0.20105663703648227
0.00859094468770393       0.20093927173832501
0.008615086723396774      0.2008244955687046
0.008639228759089616      0.2007098242005317
0.008663333566028195      0.20059961876161164
0.008687438372966773      0.20048950953890157
0.008711505475296052      0.2003835974104692
0.008735572577625332      0.2002777736346675
0.008759602034322665      0.20017386759235942
0.008783631491019996      0.20007004623888283
0.00880762336097047       0.1999651989106431
0.008831615230920945      0.1998604378169141
0.008855569572917556      0.19975255284084006
0.008879523914914167      0.19964475953145014
0.008903440787657932      0.19953334820770596
0.008927357660401697      0.1994220352032784
0.008951237122501822      0.19930825499045174
0.008975116584601948      0.1991945778483106
0.00899895869457596       0.19908074960788064
0.009022800804549974      0.19896702480484751
0.009046605620823867      0.1988557212244746
0.009070410437097762      0.19874451647848826
0.009094178018006143      0.19863738885448556
0.009117945598914526      0.19853035243010753
0.009141676002700754      0.19842727249437353
0.009165406406486984      0.19832427652638165
0.00918909969130331       0.19822333210666374
0.009212792976119637      0.1981224678635949
0.009236449200027357      0.19802096080597834
0.009260105423935077      0.19791953478019406
0.009283724644904665      0.19781535048857532
0.009307343865874253      0.1977112518582891
0.009330926141785503      0.19760377416901218
0.009354508417696755      0.1974963881436453
0.009378053806338927      0.19738655120658094
0.009401599194981097      0.197276810493312
0.009425107754053069      0.19716665054288138
0.009448616313125038      0.19705658767293108
0.009472088100235414      0.19694849359351746
0.00949555988734579       0.19684049297094025
0.009518994960013074      0.19673619277578444
0.009542430032680358      0.19663197929370732
0.009565833710597185      0.19653169952373045
0.009589237388514011      0.19643149946990857
0.009612693202473314      0.19633334009389963
0.00963614901643262       0.1962352567306098
0.009659686085703122      0.19613660174232395
0.009683223154973624      0.19603802342620621
0.009706841761038866      0.1959366449483887
0.009730460367104109      0.19583534765100663
0.009754160792422747      0.1957302668706894
0.009777861217741383      0.19562527376344224
0.009801643745750559      0.19551708020266315
0.009825426273759735      0.19540898008309024
0.009849291188878471      0.19529952931115427
0.009873156103997208      0.19519017449662465
0.009897103691629806      0.19508190376335655
0.009921051279262407      0.1949737269595105
0.009945081825801864      0.19486862297515017
0.009969112372341321      0.1947636072267687
0.009993226165172755      0.19466217351609877
0.010017339958004188      0.19456082153133045
0.010041537285508264      0.19446171424797568
0.01006573461301234       0.1943626845729124
0.010090015764568739      0.1942633439524848
0.010114296916125138      0.19416408115423084
0.010138662182115994      0.19406204699632532
0.01016302744810685       0.19396009514676124
0.010187477119920248      0.19385424229904374
0.010211926791733644      0.1937484785133637
0.010236461161767076      0.1936394221381995
0.010260995531800508      0.19353046082039957
0.010285614893464402      0.19342020704414753
0.010310234255128295      0.1933100507595785
0.010334938902849495      0.19320119863317042
0.010359643550570697      0.1930924415353099
0.010384433779796         0.19298700584597922
0.010409224009021306      0.19288165898355575
0.010434100116221         0.19277994141736757
0.010458976223420692      0.1926783060297402
0.010483938506092078      0.19257864167933764
0.010508900788763464      0.19247905581706454
0.010533949545434441      0.19237866859495995
0.01055899830210542       0.19227836091011194
0.010584131220024849      0.19217485758602837
0.01060926413794428       0.19207143910635885
0.010634394873842316      0.19196439151050543
0.010659525609740353      0.19185743520318344
0.010684612212049908      0.19174813304286412
0.010709698814359465      0.19163892656277348
0.010734741360586188      0.19152972775838292
0.010759783906812913      0.19142062469997312
0.010784782474326324      0.19131408030567432
0.010809781041839736      0.1912076269471519
0.010834735707873485      0.19110530113110277
0.010859690373907235      0.19100305887950897
0.010884601215559335      0.19090462751076498
0.010909512057211433      0.190806272975769
0.010934379151444507      0.19070955453428914
0.010959246245677581      0.19061290996170702
0.010984069669319078      0.1905151442036774
0.011008893092960574      0.1904174539568978
0.011033672922703037      0.1903167909866569
0.011058452752445498      0.19021620843599987
0.01108318906484678       0.1901125091837727
0.01110792537724806       0.19000889578813351
0.011132618248731569      0.1899036335731517
0.011157311120215077      0.18979846023473076
0.011181960627070005      0.18969398051034317
0.011206610133924932      0.18958958848077484
0.011231216352306499      0.18948812706082788
0.011255822570688067      0.18938674815069095
0.01128038557661775       0.18928942890321268
0.011304948582547433      0.18919218514074568
0.011329468451913197      0.1890982939112188
0.01135398832127896       0.18900447249283742
0.011378465129835515      0.18891174202109626
0.011402941938392069      0.18881907940281786
0.011427375761761067      0.18872495112739704
0.011451809585130068      0.18863089286139179
0.011476200498800378      0.18853383051176545
0.011500591412470687      0.18843684298994456
0.011524939491798595      0.18833697552578663
0.011549287571126502      0.18823718775867784
0.011573592891335957      0.1881360586596647
0.011597898211545414      0.18803501164122052
0.011622160847728262      0.18793482928201682
0.011646423483911112      0.18783472756396716
0.011670650358609744      0.18773747493981136
0.011694877233308375      0.187640298104405
0.011719129781724253      0.18754667292313768
0.011743382330140132      0.1874531175746178
0.01176767518607261       0.18736233473429312
0.011791968042005089      0.18727161713264986
0.01181630127244489       0.1871814789884034
0.011840634502884691      0.18709140494995857
0.011865008174933897      0.18699944358275852
0.011889381846983104      0.1869075490614076
0.011913796027855288      0.1868123062582605
0.01193821020872747       0.18671713555594507
0.011962664965747934      0.1866187844050182
0.011987119722768398      0.1865205106224625
0.012011615123374342      0.18642065149306605
0.012036110523980285      0.1863208724698945
0.012060646635720974      0.18622178112756294
0.01208518274746166       0.18612276873027989
0.01210975963799863       0.1860264769981373
0.012134336528535601      0.1859302595753989
0.012158954265642848      0.18583762848682292
0.012183572002750095      0.18574506573111949
0.012208230654314256      0.18565519064237554
0.012232889305878418      0.18556537946076446
0.01225758893989894       0.18547593501348802
0.012282288573919463      0.18538655367883433
0.012307029258508823      0.18529503645003662
0.01233176994309818       0.1852035854599659
0.01235655174648206       0.18510863992566692
0.01238133354986594       0.18501376612851447
0.012406156540383394      0.18491578660579616
0.012430979530900848      0.1848178839737805
0.012455843777004521      0.1847186677277093
0.012480708023108196      0.1846195306445342
0.012505613593364506      0.1845214186137473
0.012530519163620815      0.1844233840063621
0.01255546612671014       0.18432828899887085
0.012580413089799463      0.18423326643728374
0.012605401514516296      0.1841417611384229
0.012630389939233128      0.18405032246424977
0.012655419894486333      0.18396114981919823
0.012680449849739537      0.18387204005596164
0.012705521404552486      0.18378262142612256
0.012730592959365437      0.18369326593085983
0.01275570618287623       0.18360118465178507
0.012780819406387024      0.1835091705989178
0.012805960129807064      0.18341353604631547
0.012831100853227105      0.18331797451697524
0.012856185480322017      0.1832199850818908
0.012881270107416928      0.1831220727948092
0.012906285156640732      0.18302391248342675
0.012931300205864535      0.18292582983097927
0.012956245870207148      0.18282984633875585
0.01298119153454976       0.18273393701480223
0.0130060680064658        0.18264169295617802
0.013030944478381837      0.1825495170473013
0.013055751949792103      0.1824610439813019
0.01308055942120237       0.1823726331589268
0.013105298083495334      0.18228627342888146
0.013130036745788299      0.18219997268769053
0.013154706789821561      0.18211314873332046
0.013179376833854825      0.1820263844021677
0.013203978449956612      0.18193699527313648
0.0132285800660584        0.1818476696789631
0.013253113444029008      0.18175520387984745
0.013277646821999618      0.18166280656707423
0.013302112151112898      0.18156846741487181
0.01332657748022618       0.18147419997212588
0.013350974949230987      0.1813801193760419
0.013375372418235795      0.18128611026414074
0.013399702215357441      0.18119436319401377
0.013424032012479088      0.18110268398201643
0.013448294325420808      0.18101451797243864
0.013472556638362528      0.18092641428352127
0.013496751654306922      0.18084167744455273
0.013520946670251317      0.18075699776787
0.013545074575861776      0.1806740530918972
0.013569202481472236      0.18059116292004884
0.013593263462894415      0.18050762050218125
0.013617324444316596      0.18042413340365399
0.013641318687179821      0.18033811821537904
0.013665312930043047      0.18025216199482658
0.013689240619461768      0.1801632346090296
0.01371316830888049       0.18007437071919874
0.013737029629455694      0.17998358607339462
0.013760890950030896      0.17989286800050375
0.013784686085851542      0.17980213455133956
0.013808481221672188      0.17971146777642202
0.01383221035631662       0.1796227308758521
0.01385593949096105       0.17953405766042332
0.013879602807498417      0.1794485553972259
0.013903266124035783      0.1793631119688416
0.01392686380502745       0.17928094410787465
0.013950461486019118      0.17919883020920405
0.013973993997965716      0.17911866690827494
0.013997526509912313      0.17903855469694727
0.014021042880620848      0.1789580519031237
0.014044559251329384      0.17887760061174066
0.0140680953451257        0.17879470052584917
0.014091631438922015      0.17871185531908879
0.014115187272347798      0.17862577901430593
0.01413874310577358       0.17853976231238636
0.014162318695384379      0.1784511622606849
0.014185894284995176      0.1783626257791327
0.014209489647360424      0.17827318642553483
0.014233085009725671      0.17818381209143505
0.014256700161428717      0.17809551467111462
0.014280315313131762      0.1780072806039752
0.014303950270769817      0.17792163762212324
0.014327585228407873      0.17783605399644264
0.014351240008592104      0.17775349248072267
0.014374894788776335      0.17767098576599152
0.014398569408131844      0.17759057802845368
0.014422244027487352      0.17751022195902136
0.014445938502653181      0.17742995522324367
0.014469632977819011      0.1773497398809878
0.014493347325448129      0.17726743790338498
0.014517061673077246      0.1771851901671334
0.014540795909836618      0.17709966540518723
0.01456453014659599       0.177014199648943
0.014588284289166554      0.17692580972979288
0.014612038431737117      0.1768374832943741
0.014635812496813793      0.1767477731671399
0.014659586561890469      0.17665812873375308
0.014683380566182206      0.1765690888993715
0.014707174570473944      0.1764801138283194
0.014730988530703659      0.17639341763974856
0.014754802490933373      0.17630678265335825
0.014778636423838032      0.17622315948675396
0.014802470356742693      0.17613959291430617
0.014826324279073311      0.176058417013838
0.01485017820140393       0.17597729410933968
0.014874052129925562      0.1758966995826998
0.014897926058447192      0.17581615715339838
0.014921820009938962      0.1757338799900541
0.01494571396143073       0.1756516572821473
0.014969627952685796      0.17556623507597952
0.014993541943940862      0.1754808719827727
0.015017475991766506      0.17539233756600542
0.01504141003959215       0.1753038671336273
0.015065364160809745      0.17521359567728248
0.015089318282027338      0.17512339109471864
0.015113292493472354      0.1750333738719404
0.015137266704917371      0.17494342325228457
0.01516126102343942       0.1748554888914765
0.01518525534196147       0.1747676179316954
0.015209269784424247      0.17468269823983953
0.015233284226887025      0.17459783734731082
0.015257312728438822      0.17451557430143155
0.015281341229990619      0.1744333660850402
0.015305372082065422      0.17435203462925092
0.015329402934140224      0.17427075659500138
0.015353435843849022      0.17418803257775226
0.01537746875355782       0.1741053639580288
0.015401503721076465      0.17401958653159624