% Model:              fiber_tube_129_full_run_with_err.mph
% Version:            COMSOL 5.4.0.246
% Date:               Jan 15 2019, 14:44
% Dimension:          1
% Nodes:              42795
% Expressions:        1
% Description:        Line graph
% r             Height
4.0000          0.0000
4.0200          2.2355E-5
4.0400          4.4709E-5
4.0600          6.7062E-5
4.0800          8.9413E-5
4.1000          1.1176E-4
4.1200          1.2211E-4
4.1400          1.3246E-4
4.1600          1.4280E-4
4.1800          1.5315E-4
4.2000          1.6350E-4
4.2200          1.7286E-4
4.2400          1.8223E-4
4.2600          1.9160E-4
4.2800          2.0097E-4
4.3000          2.1034E-4
4.3200          2.1864E-4
4.3400          2.2695E-4
4.3600          2.3525E-4
4.3800          2.4356E-4
4.4000          2.5186E-4
4.4200          2.5981E-4
4.4400          2.6775E-4
4.4600          2.7569E-4
4.4800          2.8364E-4
4.5000          2.9158E-4
4.5200          2.9933E-4
4.5400          3.0709E-4
4.5600          3.1484E-4
4.5800          3.2259E-4
4.6000          3.3034E-4
4.6200          3.3805E-4
4.6400          3.4575E-4
4.6600          3.5346E-4
4.6800          3.6116E-4
4.7000          3.6886E-4
4.7200          3.7660E-4
4.7400          3.8434E-4
4.7600          3.9208E-4
4.7800          3.9982E-4
4.8000          4.0755E-4
4.8200          4.1538E-4
4.8400          4.2322E-4
4.8600          4.3105E-4
4.8800          4.3888E-4
4.9000          4.4671E-4
4.9200          4.5468E-4
4.9400          4.6265E-4
4.9600          4.7062E-4
4.9800          4.7859E-4
5.0000          4.8656E-4
5.0200          4.9471E-4
5.0400          5.0287E-4
5.0600          5.1102E-4
5.0800          5.1917E-4
5.1000          5.2733E-4
5.1200          5.3571E-4
5.1400          5.4410E-4
5.1600          5.5249E-4
5.1800          5.6087E-4
5.2000          5.6926E-4
5.2200          5.7793E-4
5.2400          5.8661E-4
5.2600          5.9528E-4
5.2800          6.0395E-4
5.3000          6.1263E-4
5.3200          6.2167E-4
5.3400          6.3070E-4
5.3600          6.3974E-4
5.3800          6.4878E-4
5.4000          6.5782E-4
5.4200          6.6732E-4
5.4400          6.7682E-4
5.4600          6.8633E-4
5.4800          6.9583E-4
5.5000          7.0533E-4
5.5200          7.1545E-4
5.5400          7.2557E-4
5.5600          7.3568E-4
5.5800          7.4580E-4
5.6000          7.5591E-4
5.6200          7.6686E-4
5.6400          7.7780E-4
5.6600          7.8875E-4
5.6800          7.9969E-4
5.7000          8.1063E-4
5.7200          8.2274E-4
5.7400          8.3484E-4
5.7600          8.4694E-4
5.7800          8.5905E-4
5.8000          8.7115E-4
5.8200          8.8491E-4
5.8400          8.9868E-4
5.8600          9.1244E-4
5.8800          9.2621E-4
5.9000          9.3997E-4
5.9200          9.5616E-4
5.9400          9.7235E-4
5.9600          9.8854E-4
5.9800          0.0010047
6.0000          0.0010209
6.0200          0.0010407
6.0400          0.0010604
6.0600          0.0010801
6.0800          0.0010999
6.1000          0.0011196
6.1200          0.0011443
6.1400          0.0011691
6.1600          0.0011938
6.1800          0.0012186
6.2000          0.0012433
6.2200          0.0012751
6.2400          0.0013069
6.2600          0.0013388
6.2800          0.0013706
6.3000          0.0014024
6.3200          0.0014446
6.3400          0.0014867
6.3600          0.0015289
6.3800          0.0015710
6.4000          0.0016132
6.4200          0.0016705
6.4400          0.0017278
6.4600          0.0017852
6.4800          0.0018425
6.5000          0.0018998
6.5200          0.0019789
6.5400          0.0020580
6.5600          0.0021371
6.5800          0.0022162
6.6000          0.0022952
6.6200          0.0024032
6.6400          0.0025112
6.6600          0.0026192
6.6800          0.0027271
6.7000          0.0028350
6.7200          0.0029783
6.7400          0.0031216
6.7600          0.0032648
6.7800          0.0034080
6.8000          0.0035511
6.8200          0.0037363
6.8400          0.0039214
6.8600          0.0041065
6.8800          0.0042914
6.9000          0.0044763
6.9200          0.0047105
6.9400          0.0049445
6.9600          0.0051785
6.9800          0.0054122
7.0000          0.0056459
7.0200          0.0059370
7.0400          0.0062280
7.0600          0.0065187
7.0800          0.0068092
7.1000          0.0070995
7.1200          0.0074561
7.1400          0.0078123
7.1600          0.0081683
7.1800          0.0085239
7.2000          0.0088792
7.2200          0.0093100
7.2400          0.0097404
7.2600          0.010170
7.2800          0.010600
7.3000          0.011029
7.3200          0.011543
7.3400          0.012056
7.3600          0.012569
7.3800          0.013081
7.4000          0.013592
7.4200          0.014198
7.4400          0.014804
7.4600          0.015408
7.4800          0.016011
7.5000          0.016614
7.5200          0.017321
7.5400          0.018027
7.5600          0.018731
7.5800          0.019434
7.6000          0.020136
7.6200          0.020952
7.6400          0.021766
7.6600          0.022578
7.6800          0.023388
7.7000          0.024197
7.7200          0.025128
7.7400          0.026057
7.7600          0.026983
7.7800          0.027907
7.8000          0.028829
7.8200          0.029879
7.8400          0.030925
7.8600          0.031969
7.8800          0.033010
7.9000          0.034048
7.9200          0.035214
7.9400          0.036377
7.9600          0.037536
7.9800          0.038691
8.0000          0.039842
8.0200          0.041115
8.0400          0.042384
8.0600          0.043648
8.0800          0.044907
8.1000          0.046162
8.1200          0.047529
8.1400          0.048891
8.1600          0.050247
8.1800          0.051598
8.2000          0.052943
8.2200          0.054391
8.2400          0.055833
8.2600          0.057269
8.2800          0.058698
8.3000          0.060122
8.3200          0.061641
8.3400          0.063154
8.3600          0.064660
8.3800          0.066159
8.4000          0.067651
8.4200          0.069234
8.4400          0.070809
8.4600          0.072378
8.4800          0.073938
8.5000          0.075492
8.5200          0.077131
8.5400          0.078763
8.5600          0.080387
8.5800          0.082002
8.6000          0.083610
8.6200          0.085300
8.6400          0.086982
8.6600          0.088655
8.6800          0.090319
8.7000          0.091975
8.7200          0.093711
8.7400          0.095437
8.7600          0.097153
8.7800          0.098861
8.8000          0.10056
8.8200          0.10233
8.8400          0.10410
8.8600          0.10585
8.8800          0.10760
8.9000          0.10934
8.9200          0.11114
8.9400          0.11294
8.9600          0.11473
8.9800          0.11651
9.0000          0.11828
9.0200          0.12012
9.0400          0.12195
9.0600          0.12376
9.0800          0.12557
9.1000          0.12737
9.1200          0.12923
9.1400          0.13108
9.1600          0.13292
9.1800          0.13475
9.2000          0.13657
9.2200          0.13846
9.2400          0.14033
9.2600          0.14219
9.2800          0.14404
9.3000          0.14588
9.3200          0.14778
9.3400          0.14967
9.3600          0.15155
9.3800          0.15341
9.4000          0.15526
9.4200          0.15718
9.4400          0.15908
9.4600          0.16097
9.4800          0.16284
9.5000          0.16471
9.5200          0.16663
9.5400          0.16854
9.5600          0.17043
9.5800          0.17232
9.6000          0.17419
9.6200          0.17611
9.6400          0.17803
9.6600          0.17993
9.6800          0.18182
9.7000          0.18369
9.7200          0.18562
9.7400          0.18753
9.7600          0.18944
9.7800          0.19132
9.8000          0.19320
9.8200          0.19512
9.8400          0.19704
9.8600          0.19894
9.8800          0.20082
9.9000          0.20269
9.9200          0.20461
9.9400          0.20652
9.9600          0.20842
9.9800          0.21030
10.000          0.21216
10.020          0.21407
10.040          0.21597
10.060          0.21786
10.080          0.21973
10.100          0.22159
10.120          0.22349
10.140          0.22537
10.160          0.22725
10.180          0.22911
10.200          0.23095
10.220          0.23284
10.240          0.23471
10.260          0.23657
10.280          0.23842
10.300          0.24025
10.320          0.24212
10.340          0.24398
10.360          0.24582
10.380          0.24765
10.400          0.24947
10.420          0.25132
10.440          0.25315
10.460          0.25498
10.480          0.25679
10.500          0.25858
10.520          0.26041
10.540          0.26223
10.560          0.26403
10.580          0.26582
10.600          0.26759
10.620          0.26940
10.640          0.27119
10.660          0.27297
10.680          0.27473
10.700          0.27648
10.720          0.27826
10.740          0.28003
10.760          0.28178
10.780          0.28352
10.800          0.28524
10.820          0.28699
10.840          0.28873
10.860          0.29045
10.880          0.29216
10.900          0.29386
10.920          0.29558
10.940          0.29728
10.960          0.29898
10.980          0.30066
11.000          0.30233
11.020          0.30401
11.040          0.30568
11.060          0.30734
11.080          0.30899
11.100          0.31063
11.120          0.31228
11.140          0.31392
11.160          0.31554
11.180          0.31716
11.200          0.31876
11.220          0.32037
11.240          0.32197
11.260          0.32356
11.280          0.32514
11.300          0.32671
11.320          0.32828
11.340          0.32984
11.360          0.33139
11.380          0.33293
11.400          0.33446
11.420          0.33599
11.440          0.33751
11.460          0.33902
11.480          0.34052
11.500          0.34201
11.520          0.34350
11.540          0.34498
11.560          0.34644
11.580          0.34790
11.600          0.34935
11.620          0.35079
11.640          0.35222
11.660          0.35365
11.680          0.35506
11.700          0.35646
11.720          0.35786
11.740          0.35924
11.760          0.36062
11.780          0.36198
11.800          0.36334
11.820          0.36468
11.840          0.36602
11.860          0.36734
11.880          0.36866
11.900          0.36997
11.920          0.37126
11.940          0.37254
11.960          0.37382
11.980          0.37508
12.000          0.37634
12.020          0.37758
12.040          0.37881
12.060          0.38003
12.080          0.38124
12.100          0.38245
12.120          0.38362
12.140          0.38479
12.160          0.38596
12.180          0.38711
12.200          0.38826
12.220          0.38938
12.240          0.39049
12.260          0.39160
12.280          0.39270
12.300          0.39379
12.320          0.39484
12.340          0.39589
12.360          0.39693
12.380          0.39797
12.400          0.39900
12.420          0.39999
12.440          0.40097
12.460          0.40195
12.480          0.40292
12.500          0.40389
12.520          0.40481
12.540          0.40572
12.560          0.40663
12.580          0.40754
12.600          0.40844
12.620          0.40929
12.640          0.41013
12.660          0.41097
12.680          0.41181
12.700          0.41264
12.720          0.41342
12.740          0.41419
12.760          0.41495
12.780          0.41572
12.800          0.41648
12.820          0.41717
12.840          0.41786
12.860          0.41856
12.880          0.41924
12.900          0.41993
12.920          0.42055
12.940          0.42116
12.960          0.42177
12.980          0.42238
13.000          0.42299
13.020          0.42353
13.040          0.42406
13.060          0.42460
13.080          0.42513
13.100          0.42566
13.120          0.42612
13.140          0.42657
13.160          0.42702
13.180          0.42748
13.200          0.42793
13.220          0.42831
13.240          0.42868
13.260          0.42906
13.280          0.42943
13.300          0.42981
13.320          0.43012
13.340          0.43042
13.360          0.43073
13.380          0.43104
13.400          0.43134
13.420          0.43159
13.440          0.43184
13.460          0.43209
13.480          0.43234
13.500          0.43259
13.520          0.43279
13.540          0.43299
13.560          0.43320
13.580          0.43340
13.600          0.43360
13.620          0.43377
13.640          0.43394
13.660          0.43410
13.680          0.43427
13.700          0.43444
13.720          0.43458
13.740          0.43472
13.760          0.43485
13.780          0.43499
13.800          0.43513
13.820          0.43525
13.840          0.43536
13.860          0.43547
13.880          0.43559
13.900          0.43570
13.920          0.43580
13.940          0.43589
13.960          0.43598
13.980          0.43608
14.000          0.43617
14.020          0.43625
14.040          0.43633
14.060          0.43641
14.080          0.43648
14.100          0.43656
14.120          0.43662
14.140          0.43669
14.160          0.43675
14.180          0.43681
14.200          0.43688
14.220          0.43693
14.240          0.43698
14.260          0.43703
14.280          0.43709
14.300          0.43714
14.320          0.43718
14.340          0.43722
14.360          0.43727
14.380          0.43731
14.400          0.43735
14.420          0.43739
14.440          0.43742
14.460          0.43745
14.480          0.43749
14.500          0.43752
14.520          0.43755
14.540          0.43758
14.560          0.43761
14.580          0.43764
14.600          0.43766
14.620          0.43769
14.640          0.43771
14.660          0.43773
14.680          0.43775
14.700          0.43778
14.720          0.43779
14.740          0.43781
14.760          0.43783
14.780          0.43785
14.800          0.43787
14.820          0.43788
14.840          0.43790
14.860          0.43791
14.880          0.43793
14.900          0.43794
14.920          0.43795
14.940          0.43797
14.960          0.43798
14.980          0.43799
15.000          0.43800
15.020          0.43801
15.040          0.43802
15.060          0.43803
15.080          0.43804
15.100          0.43805
15.120          0.43806
15.140          0.43806
15.160          0.43807
15.180          0.43808
15.200          0.43809
15.220          0.43809
15.240          0.43810
15.260          0.43810
15.280          0.43811
15.300          0.43812
15.320          0.43812
15.340          0.43813
15.360          0.43813
15.380          0.43814
15.400          0.43814
15.420          0.43815
15.440          0.43815
15.460          0.43815
15.480          0.43816
15.500          0.43816
15.520          0.43817
15.540          0.43817
15.560          0.43817
15.580          0.43818
15.600          0.43818
15.620          0.43818
15.640          0.43819
15.660          0.43819
15.680          0.43820
15.700          0.43820
15.720          0.43820
15.740          0.43821
15.760          0.43821
15.780          0.43821
15.800          0.43822
15.820          0.43822
15.840          0.43822
15.860          0.43823
15.880          0.43823
15.900          0.43823
15.920          0.43824
15.940          0.43824
15.960          0.43824
15.980          0.43824
16.000          0.43825
16.020          0.43825
16.040          0.43825
16.060          0.43826
16.080          0.43826
16.100          0.43826
16.120          0.43826
16.140          0.43827
16.160          0.43827
16.180          0.43827
16.200          0.43827
16.220          0.43827
16.240          0.43828
16.260          0.43828
16.280          0.43828
16.300          0.43828
16.320          0.43829
16.340          0.43829
16.360          0.43829
16.380          0.43829
16.400          0.43829
16.420          0.43829
16.440          0.43830
16.460          0.43830
16.480          0.43830
16.500          0.43830
16.520          0.43830
16.540          0.43830
16.560          0.43830
16.580          0.43830
16.600          0.43831
16.620          0.43831
16.640          0.43831
16.660          0.43831
16.680          0.43831
16.700          0.43831
16.720          0.43831
16.740          0.43831
16.760          0.43831
16.780          0.43832
16.800          0.43832
16.820          0.43832
16.840          0.43832
16.860          0.43832
16.880          0.43832
16.900          0.43832
16.920          0.43832
16.940          0.43832
16.960          0.43832
16.980          0.43832
17.000          0.43832
17.020          0.43832
17.040          0.43832
17.060          0.43832
17.080          0.43832
17.100          0.43833
17.120          0.43833
17.140          0.43833
17.160          0.43833
17.180          0.43833
17.200          0.43833
17.220          0.43833
17.240          0.43833
17.260          0.43833
17.280          0.43833
17.300          0.43833
17.320          0.43833
17.340          0.43833
17.360          0.43833
17.380          0.43833
17.400          0.43833
17.420          0.43833
17.440          0.43833
17.460          0.43833
17.480          0.43833
17.500          0.43833
17.520          0.43833
17.540          0.43833
17.560          0.43833
17.580          0.43833
17.600          0.43833
17.620          0.43833
17.640          0.43833
17.660          0.43833
17.680          0.43833
17.700          0.43833
17.720          0.43833
17.740          0.43833
17.760          0.43833
17.780          0.43833
17.800          0.43833
17.820          0.43833
17.840          0.43833
17.860          0.43833
17.880          0.43833
17.900          0.43833
17.920          0.43833
17.940          0.43833
17.960          0.43833
17.980          0.43833
18.000          0.43833
18.020          0.43833
18.040          0.43834
18.060          0.43834
18.080          0.43834
18.100          0.43834
18.120          0.43834
18.140          0.43834
18.160          0.43834
18.180          0.43834
18.200          0.43834
18.220          0.43834
18.240          0.43834
18.260          0.43834
18.280          0.43834
18.300          0.43834
18.320          0.43834
18.340          0.43834
18.360          0.43834
18.380          0.43834
18.400          0.43834
18.420          0.43834
18.440          0.43834
18.460          0.43834
18.480          0.43834
18.500          0.43834
18.520          0.43834
18.540          0.43834
18.560          0.43834
18.580          0.43834
18.600          0.43834
18.620          0.43834
18.640          0.43834
18.660          0.43834
18.680          0.43834
18.700          0.43834
18.720          0.43834
18.740          0.43834
18.760          0.43834
18.780          0.43834
18.800          0.43834
18.820          0.43834
18.840          0.43834
18.860          0.43834
18.880          0.43834
18.900          0.43834
18.920          0.43834
18.940          0.43834
18.960          0.43834
18.980          0.43834
19.000          0.43834
19.020          0.43834
19.040          0.43834
19.060          0.43834
19.080          0.43834
19.100          0.43834
19.120          0.43834
19.140          0.43834
19.160          0.43834
19.180          0.43834
19.200          0.43833
19.220          0.43833
19.240          0.43833
19.260          0.43833
19.280          0.43833
19.300          0.43833
19.320          0.43833
19.340          0.43833
19.360          0.43833
19.380          0.43833
19.400          0.43833
19.420          0.43833
19.440          0.43833
19.460          0.43833
19.480          0.43833
19.500          0.43833
19.520          0.43833
19.540          0.43833
19.560          0.43833
19.580          0.43833
19.600          0.43833
19.620          0.43833
19.640          0.43833
19.660          0.43833
19.680          0.43833
19.700          0.43833
19.720          0.43833
19.740          0.43833
19.760          0.43833
19.780          0.43833
19.800          0.43833
19.820          0.43833
19.840          0.43833
19.860          0.43833
19.880          0.43833
19.900          0.43833
19.920          0.43833
19.940          0.43833
19.960          0.43833
19.980          0.43833
20.000          0.43833
20.020          0.43833
20.040          0.43833
20.060          0.43833
20.080          0.43833
20.100          0.43833
20.120          0.43833
20.140          0.43833
20.160          0.43833
20.180          0.43833
20.200          0.43833
20.220          0.43833
20.240          0.43833
20.260          0.43833
20.280          0.43833
20.300          0.43833
20.320          0.43833
20.340          0.43833
20.360          0.43833
20.380          0.43833
20.400          0.43833
20.420          0.43833
20.440          0.43833
20.460          0.43833
20.480          0.43833
20.500          0.43833
20.520          0.43833
20.540          0.43833
20.560          0.43833
20.580          0.43833
20.600          0.43833
20.620          0.43833
20.640          0.43833
20.660          0.43833
20.680          0.43833
20.700          0.43833
20.720          0.43833
20.740          0.43833
20.760          0.43833
20.780          0.43833
20.800          0.43833
20.820          0.43833
20.840          0.43833
20.860          0.43833
20.880          0.43833
20.900          0.43833
20.920          0.43833
20.940          0.43833
20.960          0.43833
20.980          0.43833
21.000          0.43833
21.020          0.43833
21.040          0.43833
21.060          0.43833
21.080          0.43833
21.100          0.43833
21.120          0.43833
21.140          0.43833
21.160          0.43833
21.180          0.43833
21.200          0.43833
21.220          0.43833
21.240          0.43833
21.260          0.43833
21.280          0.43833
21.300          0.43833
21.320          0.43833
21.340          0.43833
21.360          0.43833
21.380          0.43833
21.400          0.43833
21.420          0.43833
21.440          0.43833
21.460          0.43833
21.480          0.43833
21.500          0.43833
21.520          0.43833
21.540          0.43833
21.560          0.43833
21.580          0.43833
21.600          0.43833
21.620          0.43833
21.640          0.43833
21.660          0.43833
21.680          0.43833
21.700          0.43833
21.720          0.43833
21.740          0.43833
21.760          0.43833
21.780          0.43833
21.800          0.43833
21.820          0.43833
21.840          0.43833
21.860          0.43833
21.880          0.43833
21.900          0.43833
21.920          0.43833
21.940          0.43833
21.960          0.43833
21.980          0.43833
22.000          0.43833
22.020          0.43833
22.040          0.43833
22.060          0.43833
22.080          0.43833
22.100          0.43833
22.120          0.43833
22.140          0.43833
22.160          0.43833
22.180          0.43833
22.200          0.43833
22.220          0.43833
22.240          0.43833
22.260          0.43833
22.280          0.43833
22.300          0.43833
22.320          0.43833
22.340          0.43833
22.360          0.43833
22.380          0.43833
22.400          0.43833
22.420          0.43833
22.440          0.43833
22.460          0.43833
22.480          0.43833
22.500          0.43833
22.520          0.43833
22.540          0.43833
22.560          0.43833
22.580          0.43833
22.600          0.43833
22.620          0.43833
22.640          0.43833
22.660          0.43833
22.680          0.43833
22.700          0.43833
22.720          0.43833
22.740          0.43833
22.760          0.43833
22.780          0.43833
22.800          0.43833
22.820          0.43833
22.840          0.43833
22.860          0.43833
22.880          0.43833
22.900          0.43833
22.920          0.43833
22.940          0.43833
22.960          0.43833
22.980          0.43833
23.000          0.43833
4.0000          3.8154E-16
4.0200          2.4473E-5
4.0400          4.8945E-5
4.0600          7.3416E-5
4.0800          9.7884E-5
4.1000          1.2235E-4
4.1200          1.3372E-4
4.1400          1.4509E-4
4.1600          1.5646E-4
4.1800          1.6784E-4
4.2000          1.7921E-4
4.2200          1.8952E-4
4.2400          1.9983E-4
4.2600          2.1014E-4
4.2800          2.2045E-4
4.3000          2.3076E-4
4.3200          2.3992E-4
4.3400          2.4908E-4
4.3600          2.5824E-4
4.3800          2.6740E-4
4.4000          2.7656E-4
4.4200          2.8534E-4
4.4400          2.9412E-4
4.4600          3.0291E-4
4.4800          3.1169E-4
4.5000          3.2047E-4
4.5200          3.2906E-4
4.5400          3.3765E-4
4.5600          3.4624E-4
4.5800          3.5483E-4
4.6000          3.6342E-4
4.6200          3.7199E-4
4.6400          3.8055E-4
4.6600          3.8911E-4
4.6800          3.9767E-4
4.7000          4.0624E-4
4.7200          4.1487E-4
4.7400          4.2349E-4
4.7600          4.3212E-4
4.7800          4.4075E-4
4.8000          4.4938E-4
4.8200          4.5814E-4
4.8400          4.6691E-4
4.8600          4.7567E-4
4.8800          4.8444E-4
4.9000          4.9320E-4
4.9200          5.0217E-4
4.9400          5.1113E-4
4.9600          5.2010E-4
4.9800          5.2906E-4
5.0000          5.3803E-4
5.0200          5.4726E-4
5.0400          5.5649E-4
5.0600          5.6571E-4
5.0800          5.7494E-4
5.1000          5.8417E-4
5.1200          5.9374E-4
5.1400          6.0330E-4
5.1600          6.1287E-4
5.1800          6.2243E-4
5.2000          6.3200E-4
5.2200          6.4200E-4
5.2400          6.5199E-4
5.2600          6.6199E-4
5.2800          6.7199E-4
5.3000          6.8198E-4
5.3200          6.9254E-4
5.3400          7.0310E-4
5.3600          7.1365E-4
5.3800          7.2421E-4
5.4000          7.3476E-4
5.4200          7.4605E-4
5.4400          7.5734E-4
5.4600          7.6864E-4
5.4800          7.7993E-4
5.5000          7.9122E-4
5.5200          8.0351E-4
5.5400          8.1579E-4
5.5600          8.2808E-4
5.5800          8.4036E-4
5.6000          8.5264E-4
5.6200          8.6630E-4
5.6400          8.7995E-4
5.6600          8.9360E-4
5.6800          9.0725E-4
5.7000          9.2090E-4
5.7200          9.3645E-4
5.7400          9.5200E-4
5.7600          9.6755E-4
5.7800          9.8310E-4
5.8000          9.9865E-4
5.8200          0.0010169
5.8400          0.0010351
5.8600          0.0010533
5.8800          0.0010715
5.9000          0.0010897
5.9200          0.0011115
5.9400          0.0011334
5.9600          0.0011552
5.9800          0.0011771
6.0000          0.0011989
6.0200          0.0012257
6.0400          0.0012526
6.0600          0.0012794
6.0800          0.0013063
6.1000          0.0013331
6.1200          0.0013671
6.1400          0.0014011
6.1600          0.0014351
6.1800          0.0014691
6.2000          0.0015031
6.2200          0.0015475
6.2400          0.0015919
6.2600          0.0016364
6.2800          0.0016808
6.3000          0.0017252
6.3200          0.0017850
6.3400          0.0018448
6.3600          0.0019045
6.3800          0.0019643
6.4000          0.0020240
6.4200          0.0021061
6.4400          0.0021882
6.4600          0.0022703
6.4800          0.0023523
6.5000          0.0024344
6.5200          0.0025473
6.5400          0.0026601
6.5600          0.0027729
6.5800          0.0028857
6.6000          0.0029985
6.6200          0.0031508
6.6400          0.0033030
6.6600          0.0034551
6.6800          0.0036072
6.7000          0.0037593
6.7200          0.0039588
6.7400          0.0041582
6.7600          0.0043575
6.7800          0.0045567
6.8000          0.0047559
6.8200          0.0050103
6.8400          0.0052646
6.8600          0.0055188
6.8800          0.0057728
6.9000          0.0060266
6.9200          0.0063450
6.9400          0.0066631
6.9600          0.0069809
6.9800          0.0072986
7.0000          0.0076159
7.0200          0.0080078
7.0400          0.0083993
7.0600          0.0087904
7.0800          0.0091812
7.1000          0.0095715
7.1200          0.010047
7.1400          0.010522
7.1600          0.010996
7.1800          0.011469
7.2000          0.011942
7.2200          0.012511
7.2400          0.013079
7.2600          0.013646
7.2800          0.014212
7.3000          0.014778
7.3200          0.015450
7.3400          0.016120
7.3600          0.016790
7.3800          0.017459
7.4000          0.018126
7.4200          0.018910
7.4400          0.019693
7.4600          0.020475
7.4800          0.021254
7.5000          0.022032
7.5200          0.022938
7.5400          0.023842
7.5600          0.024743
7.5800          0.025642
7.6000          0.026539
7.6200          0.027573
7.6400          0.028604
7.6600          0.029632
7.6800          0.030657
7.7000          0.031679
7.7200          0.032845
7.7400          0.034008
7.7600          0.035166
7.7800          0.036322
7.8000          0.037473
7.8200          0.038771
7.8400          0.040064
7.8600          0.041352
7.8800          0.042635
7.9000          0.043915
7.9200          0.045335
7.9400          0.046750
7.9600          0.048159
7.9800          0.049562
8.0000          0.050960
8.0200          0.052487
8.0400          0.054007
8.0600          0.055520
8.0800          0.057027
8.1000          0.058527
8.1200          0.060143