% Model:              fiber_tube_129_full_run_with_err.mph
% Version:            COMSOL 5.4.0.246
% Date:               Jan 15 2019, 14:49
% Dimension:          1
% Nodes:              42795
% Expressions:        1
% Description:        Line graph
% r             Height
4.0000          89.134
4.0200          89.132
4.0400          89.130
4.0600          89.128
4.0800          89.126
4.1000          89.125
4.1200          89.124
4.1400          89.123
4.1600          89.122
4.1800          89.121
4.2000          89.120
4.2200          89.119
4.2400          89.119
4.2600          89.118
4.2800          89.117
4.3000          89.116
4.3200          89.116
4.3400          89.115
4.3600          89.114
4.3800          89.113
4.4000          89.113
4.4200          89.112
4.4400          89.111
4.4600          89.111
4.4800          89.110
4.5000          89.109
4.5200          89.109
4.5400          89.108
4.5600          89.107
4.5800          89.107
4.6000          89.106
4.6200          89.105
4.6400          89.105
4.6600          89.104
4.6800          89.103
4.7000          89.103
4.7200          89.102
4.7400          89.101
4.7600          89.101
4.7800          89.100
4.8000          89.099
4.8200          89.099
4.8400          89.098
4.8600          89.097
4.8800          89.097
4.9000          89.096
4.9200          89.095
4.9400          89.095
4.9600          89.094
4.9800          89.093
5.0000          89.093
5.0200          89.092
5.0400          89.091
5.0600          89.090
5.0800          89.090
5.1000          89.089
5.1200          89.088
5.1400          89.088
5.1600          89.087
5.1800          89.086
5.2000          89.085
5.2200          89.085
5.2400          89.084
5.2600          89.083
5.2800          89.083
5.3000          89.082
5.3200          89.081
5.3400          89.080
5.3600          89.079
5.3800          89.079
5.4000          89.078
5.4200          89.077
5.4400          89.076
5.4600          89.076
5.4800          89.075
5.5000          89.074
5.5200          89.073
5.5400          89.072
5.5600          89.071
5.5800          89.070
5.6000          89.070
5.6200          89.069
5.6400          89.068
5.6600          89.067
5.6800          89.066
5.7000          89.065
5.7200          89.064
5.7400          89.063
5.7600          89.062
5.7800          89.061
5.8000          89.060
5.8200          89.059
5.8400          89.058
5.8600          89.056
5.8800          89.055
5.9000          89.054
5.9200          89.053
5.9400          89.051
5.9600          89.050
5.9800          89.049
6.0000          89.047
6.0200          89.046
6.0400          89.044
6.0600          89.043
6.0800          89.041
6.1000          89.039
6.1200          89.037
6.1400          89.035
6.1600          89.033
6.1800          89.031
6.2000          89.029
6.2200          89.027
6.2400          89.024
6.2600          89.021
6.2800          89.019
6.3000          89.016
6.3200          89.013
6.3400          89.009
6.3600          89.006
6.3800          89.003
6.4000          88.999
6.4200          88.995
6.4400          88.990
6.4600          88.985
6.4800          88.981
6.5000          88.976
6.5200          88.970
6.5400          88.963
6.5600          88.957
6.5800          88.951
6.6000          88.944
6.6200          88.936
6.6400          88.927
6.6600          88.918
6.6800          88.910
6.7000          88.901
6.7200          88.890
6.7400          88.878
6.7600          88.867
6.7800          88.855
6.8000          88.844
6.8200          88.829
6.8400          88.814
6.8600          88.800
6.8800          88.785
6.9000          88.770
6.9200          88.751
6.9400          88.733
6.9600          88.714
6.9800          88.695
7.0000          88.677
7.0200          88.654
7.0400          88.630
7.0600          88.607
7.0800          88.584
7.1000          88.561
7.1200          88.533
7.1400          88.504
7.1600          88.476
7.1800          88.448
7.2000          88.420
7.2200          88.385
7.2400          88.351
7.2600          88.317
7.2800          88.283
7.3000          88.249
7.3200          88.208
7.3400          88.167
7.3600          88.126
7.3800          88.086
7.4000          88.045
7.4200          87.997
7.4400          87.949
7.4600          87.901
7.4800          87.853
7.5000          87.806
7.5200          87.750
7.5400          87.694
7.5600          87.638
7.5800          87.582
7.6000          87.527
7.6200          87.462
7.6400          87.398
7.6600          87.333
7.6800          87.269
7.7000          87.205
7.7200          87.132
7.7400          87.058
7.7600          86.985
7.7800          86.912
7.8000          86.839
7.8200          86.757
7.8400          86.674
7.8600          86.592
7.8800          86.510
7.9000          86.428
7.9200          86.336
7.9400          86.245
7.9600          86.153
7.9800          86.062
8.0000          85.972
8.0200          85.872
8.0400          85.772
8.0600          85.673
8.0800          85.574
8.1000          85.475
8.1200          85.368
8.1400          85.261
8.1600          85.155
8.1800          85.049
8.2000          84.943
8.2200          84.830
8.2400          84.717
8.2600          84.604
8.2800          84.492
8.3000          84.381
8.3200          84.262
8.3400          84.143
8.3600          84.026
8.3800          83.908
8.4000          83.791
8.4200          83.667
8.4400          83.544
8.4600          83.422
8.4800          83.299
8.5000          83.178
8.5200          83.050
8.5400          82.922
8.5600          82.795
8.5800          82.669
8.6000          82.543
8.6200          82.411
8.6400          82.280
8.6600          82.149
8.6800          82.019
8.7000          81.889
8.7200          81.754
8.7400          81.619
8.7600          81.485
8.7800          81.351
8.8000          81.219
8.8200          81.080
8.8400          80.942
8.8600          80.805
8.8800          80.669
8.9000          80.533
8.9200          80.392
8.9400          80.251
8.9600          80.111
8.9800          79.972
9.0000          79.834
9.0200          79.690
9.0400          79.548
9.0600          79.406
9.0800          79.264
9.1000          79.124
9.1200          78.978
9.1400          78.834
9.1600          78.690
9.1800          78.547
9.2000          78.405
9.2200          78.257
9.2400          78.111
9.2600          77.965
9.2800          77.821
9.3000          77.677
9.3200          77.528
9.3400          77.381
9.3600          77.234
9.3800          77.088
9.4000          76.943
9.4200          76.793
9.4400          76.645
9.4600          76.497
9.4800          76.350
9.5000          76.204
9.5200          76.054
9.5400          75.905
9.5600          75.756
9.5800          75.609
9.6000          75.462
9.6200          75.311
9.6400          75.162
9.6600          75.013
9.6800          74.865
9.7000          74.718
9.7200          74.567
9.7400          74.417
9.7600          74.268
9.7800          74.120
9.8000          73.973
9.8200          73.822
9.8400          73.672
9.8600          73.524
9.8800          73.376
9.9000          73.229
9.9200          73.078
9.9400          72.929
9.9600          72.780
9.9800          72.633
10.000          72.486
10.020          72.336
10.040          72.187
10.060          72.040
10.080          71.893
10.100          71.747
10.120          71.598
10.140          71.449
10.160          71.302
10.180          71.156
10.200          71.011
10.220          70.863
10.240          70.716
10.260          70.570
10.280          70.425
10.300          70.281
10.320          70.134
10.340          69.988
10.360          69.843
10.380          69.699
10.400          69.557
10.420          69.411
10.440          69.267
10.460          69.123
10.480          68.981
10.500          68.839
10.520          68.695
10.540          68.553
10.560          68.411
10.580          68.270
10.600          68.130
10.620          67.988
10.640          67.847
10.660          67.707
10.680          67.568
10.700          67.430
10.720          67.290
10.740          67.151
10.760          67.013
10.780          66.876
10.800          66.740
10.820          66.602
10.840          66.465
10.860          66.329
10.880          66.194
10.900          66.060
10.920          65.924
10.940          65.790
10.960          65.656
10.980          65.523
11.000          65.392
11.020          65.258
11.040          65.126
11.060          64.995
11.080          64.865
11.100          64.736
11.120          64.605
11.140          64.476
11.160          64.347
11.180          64.219
11.200          64.093
11.220          63.965
11.240          63.838
11.260          63.713
11.280          63.588
11.300          63.464
11.320          63.339
11.340          63.215
11.360          63.092
11.380          62.970
11.400          62.849
11.420          62.728
11.440          62.607
11.460          62.488
11.480          62.369
11.500          62.251
11.520          62.132
11.540          62.015
11.560          61.899
11.580          61.783
11.600          61.668
11.620          61.553
11.640          61.440
11.660          61.326
11.680          61.214
11.700          61.103
11.720          60.992
11.740          60.881
11.760          60.772
11.780          60.663
11.800          60.555
11.820          60.448
11.840          60.341
11.860          60.236
11.880          60.131
11.900          60.026
11.920          59.923
11.940          59.821
11.960          59.719
11.980          59.618
12.000          59.517
12.020          59.418
12.040          59.320
12.060          59.222
12.080          59.125
12.100          59.029
12.120          58.934
12.140          58.840
12.160          58.747
12.180          58.654
12.200          58.562
12.220          58.472
12.240          58.383
12.260          58.294
12.280          58.205
12.300          58.117
12.320          58.032
12.340          57.948
12.360          57.864
12.380          57.780
12.400          57.697
12.420          57.617
12.440          57.537
12.460          57.458
12.480          57.379
12.500          57.300
12.520          57.225
12.540          57.151
12.560          57.077
12.580          57.003
12.600          56.929
12.620          56.860
12.640          56.791
12.660          56.722
12.680          56.654
12.700          56.585
12.720          56.522
12.740          56.458
12.760          56.395
12.780          56.332
12.800          56.269
12.820          56.211
12.840          56.153
12.860          56.096
12.880          56.038
12.900          55.981
12.920          55.929
12.940          55.877
12.960          55.826
12.980          55.774
13.000          55.723
13.020          55.677
13.040          55.631
13.060          55.585
13.080          55.539
13.100          55.494
13.120          55.454
13.140          55.414
13.160          55.374
13.180          55.334
13.200          55.294
13.220          55.260
13.240          55.226
13.260          55.192
13.280          55.158
13.300          55.123
13.320          55.094
13.340          55.065
13.360          55.036
13.380          55.007
13.400          54.978
13.420          54.954
13.440          54.929
13.460          54.904
13.480          54.880
13.500          54.855
13.520          54.834
13.540          54.813
13.560          54.792
13.580          54.771
13.600          54.750
13.620          54.732
13.640          54.715
13.660          54.697
13.680          54.679
13.700          54.661
13.720          54.645
13.740          54.630
13.760          54.615
13.780          54.599
13.800          54.584
13.820          54.571
13.840          54.558
13.860          54.545
13.880          54.532
13.900          54.519
13.920          54.507
13.940          54.496
13.960          54.485
13.980          54.474
14.000          54.463
14.020          54.453
14.040          54.444
14.060          54.434
14.080          54.425
14.100          54.415
14.120          54.407
14.140          54.399
14.160          54.391
14.180          54.383
14.200          54.375
14.220          54.368
14.240          54.361
14.260          54.354
14.280          54.347
14.300          54.340
14.320          54.334
14.340          54.328
14.360          54.323
14.380          54.317
14.400          54.311
14.420          54.306
14.440          54.301
14.460          54.296
14.480          54.291
14.500          54.286
14.520          54.282
14.540          54.278
14.560          54.274
14.580          54.269
14.600          54.265
14.620          54.262
14.640          54.258
14.660          54.255
14.680          54.251
14.700          54.247
14.720          54.244
14.740          54.241
14.760          54.238
14.780          54.235
14.800          54.232
14.820          54.230
14.840          54.227
14.860          54.225
14.880          54.222
14.900          54.220
14.920          54.218
14.940          54.215
14.960          54.213
14.980          54.211
15.000          54.209
15.020          54.207
15.040          54.205
15.060          54.204
15.080          54.202
15.100          54.200
15.120          54.198
15.140          54.197
15.160          54.195
15.180          54.194
15.200          54.192
15.220          54.191
15.240          54.190
15.260          54.188
15.280          54.187
15.300          54.186
15.320          54.185
15.340          54.183
15.360          54.182
15.380          54.181
15.400          54.180
15.420          54.179
15.440          54.178
15.460          54.177
15.480          54.176
15.500          54.175
15.520          54.174
15.540          54.174
15.560          54.173
15.580          54.172
15.600          54.171
15.620          54.170
15.640          54.170
15.660          54.169
15.680          54.168
15.700          54.167
15.720          54.167
15.740          54.166
15.760          54.165
15.780          54.165
15.800          54.164
15.820          54.163
15.840          54.163
15.860          54.162
15.880          54.161
15.900          54.161
15.920          54.160
15.940          54.160
15.960          54.159
15.980          54.159
16.000          54.158
16.020          54.158
16.040          54.157
16.060          54.157
16.080          54.156
16.100          54.156
16.120          54.155
16.140          54.155
16.160          54.154
16.180          54.154
16.200          54.154
16.220          54.153
16.240          54.153
16.260          54.153
16.280          54.152
16.300          54.152
16.320          54.151
16.340          54.151
16.360          54.151
16.380          54.151
16.400          54.150
16.420          54.150
16.440          54.150
16.460          54.149
16.480          54.149
16.500          54.149
16.520          54.149
16.540          54.148
16.560          54.148
16.580          54.148
16.600          54.148
16.620          54.147
16.640          54.147
16.660          54.147
16.680          54.147
16.700          54.146
16.720          54.146
16.740          54.146
16.760          54.146
16.780          54.146
16.800          54.145
16.820          54.145
16.840          54.145
16.860          54.145
16.880          54.145
16.900          54.145
16.920          54.144
16.940          54.144
16.960          54.144
16.980          54.144
17.000          54.144
17.020          54.144
17.040          54.144
17.060          54.143
17.080          54.143
17.100          54.143
17.120          54.143
17.140          54.143
17.160          54.143
17.180          54.143
17.200          54.143
17.220          54.142
17.240          54.142
17.260          54.142
17.280          54.142
17.300          54.142
17.320          54.142
17.340          54.142
17.360          54.142
17.380          54.142
17.400          54.142
17.420          54.142
17.440          54.141
17.460          54.141
17.480          54.141
17.500          54.141
17.520          54.141
17.540          54.141
17.560          54.141
17.580          54.141
17.600          54.141
17.620          54.141
17.640          54.141
17.660          54.141
17.680          54.141
17.700          54.140
17.720          54.140
17.740          54.140
17.760          54.140
17.780          54.140
17.800          54.140
17.820          54.140
17.840          54.140
17.860          54.140
17.880          54.140
17.900          54.140
17.920          54.140
17.940          54.140
17.960          54.140
17.980          54.140
18.000          54.140
18.020          54.140
18.040          54.139
18.060          54.139
18.080          54.139
18.100          54.139
18.120          54.139
18.140          54.139
18.160          54.139
18.180          54.139
18.200          54.139
18.220          54.139
18.240          54.139
18.260          54.139
18.280          54.139
18.300          54.139
18.320          54.139
18.340          54.139
18.360          54.139
18.380          54.139
18.400          54.139
18.420          54.139
18.440          54.139
18.460          54.139
18.480          54.139
18.500          54.139
18.520          54.139
18.540          54.139
18.560          54.138
18.580          54.138
18.600          54.138
18.620          54.138
18.640          54.138
18.660          54.138
18.680          54.138
18.700          54.138
18.720          54.138
18.740          54.138
18.760          54.138
18.780          54.138
18.800          54.138
18.820          54.138
18.840          54.138
18.860          54.138
18.880          54.138
18.900          54.138
18.920          54.138
18.940          54.138
18.960          54.138
18.980          54.138
19.000          54.138
19.020          54.138
19.040          54.138
19.060          54.138
19.080          54.138
19.100          54.138
19.120          54.138
19.140          54.138
19.160          54.138
19.180          54.138
19.200          54.138
19.220          54.138
19.240          54.138
19.260          54.138
19.280          54.138
19.300          54.138
19.320          54.138
19.340          54.138
19.360          54.138
19.380          54.138
19.400          54.138
19.420          54.137
19.440          54.137
19.460          54.137
19.480          54.137
19.500          54.137
19.520          54.137
19.540          54.137
19.560          54.137
19.580          54.137
19.600          54.137
19.620          54.137
19.640          54.137
19.660          54.137
19.680          54.137
19.700          54.137
19.720          54.137
19.740          54.137
19.760          54.137
19.780          54.137
19.800          54.137
19.820          54.137
19.840          54.137
19.860          54.137
19.880          54.137
19.900          54.137
19.920          54.137
19.940          54.137
19.960          54.137
19.980          54.137
20.000          54.137
20.020          54.137
20.040          54.137
20.060          54.137
20.080          54.137
20.100          54.137
20.120          54.137
20.140          54.137
20.160          54.137
20.180          54.137
20.200          54.137
20.220          54.137
20.240          54.137
20.260          54.137
20.280          54.137
20.300          54.137
20.320          54.137
20.340          54.137
20.360          54.137
20.380          54.137
20.400          54.137
20.420          54.137
20.440          54.137
20.460          54.137
20.480          54.137
20.500          54.137
20.520          54.137
20.540          54.137
20.560          54.136
20.580          54.136
20.600          54.136
20.620          54.136
20.640          54.136
20.660          54.136
20.680          54.136
20.700          54.136
20.720          54.136
20.740          54.136
20.760          54.136
20.780          54.136
20.800          54.136
20.820          54.136
20.840          54.136
20.860          54.136
20.880          54.136
20.900          54.136
20.920          54.136
20.940          54.136
20.960          54.136
20.980          54.136
21.000          54.136
21.020          54.136
21.040          54.136
21.060          54.136
21.080          54.136
21.100          54.136
21.120          54.136
21.140          54.136
21.160          54.136
21.180          54.136
21.200          54.136
21.220          54.136
21.240          54.136
21.260          54.136
21.280          54.136
21.300          54.136
21.320          54.136
21.340          54.136
21.360          54.136
21.380          54.136
21.400          54.136
21.420          54.136
21.440          54.136
21.460          54.136
21.480          54.136
21.500          54.136
21.520          54.136
21.540          54.136
21.560          54.136
21.580          54.136
21.600          54.136
21.620          54.136
21.640          54.136
21.660          54.136
21.680          54.136
21.700          54.136
21.720          54.136
21.740          54.136
21.760          54.136
21.780          54.136
21.800          54.136
21.820          54.136
21.840          54.136
21.860          54.136
21.880          54.136
21.900          54.136
21.920          54.136
21.940          54.136
21.960          54.136
21.980          54.136
22.000          54.136
22.020          54.136
22.040          54.135
22.060          54.135
22.080          54.135
22.100          54.135
22.120          54.135
22.140          54.135
22.160          54.135
22.180          54.135
22.200          54.135
22.220          54.135
22.240          54.135
22.260          54.135
22.280          54.135
22.300          54.135
22.320          54.135
22.340          54.135
22.360          54.135
22.380          54.135
22.400          54.135
22.420          54.135
22.440          54.135
22.460          54.135
22.480          54.135
22.500          54.135
22.520          54.135
22.540          54.135
22.560          54.135
22.580          54.135
22.600          54.135
22.620          54.135
22.640          54.135
22.660          54.135
22.680          54.135
22.700          54.135
22.720          54.135
22.740          54.135
22.760          54.135
22.780          54.135
22.800          54.135
22.820          54.135
22.840          54.135
22.860          54.135
22.880          54.135
22.900          54.135
22.920          54.135
22.940          54.135
22.960          54.135
22.980          54.135
23.000          54.135
4.0000          90.026
4.0200          90.024
4.0400          90.022
4.0600          90.020
4.0800          90.018
4.1000          90.016
4.1200          90.015
4.1400          90.014
4.1600          90.013
4.1800          90.012
4.2000          90.011
4.2200          90.011
4.2400          90.010
4.2600          90.009
4.2800          90.008
4.3000          90.007
4.3200          90.006
4.3400          90.005
4.3600          90.005
4.3800          90.004
4.4000          90.003
4.4200          90.002
4.4400          90.002
4.4600          90.001
4.4800          90.000
4.5000          89.999
4.5200          89.999
4.5400          89.998
4.5600          89.997
4.5800          89.996
4.6000          89.996
4.6200          89.995
4.6400          89.994
4.6600          89.993
4.6800          89.993
4.7000          89.992
4.7200          89.991
4.7400          89.990
4.7600          89.990
4.7800          89.989
4.8000          89.988
4.8200          89.987
4.8400          89.987
4.8600          89.986
4.8800          89.985
4.9000          89.984
4.9200          89.984
4.9400          89.983
4.9600          89.982
4.9800          89.981
5.0000          89.981
5.0200          89.980
5.0400          89.979
5.0600          89.978
5.0800          89.977
5.1000          89.977
5.1200          89.976
5.1400          89.975
5.1600          89.974
5.1800          89.973
5.2000          89.973
5.2200          89.972
5.2400          89.971
5.2600          89.970
5.2800          89.969
5.3000          89.968
5.3200          89.967
5.3400          89.966
5.3600          89.966
5.3800          89.965
5.4000          89.964
5.4200          89.963
5.4400          89.962
5.4600          89.961
5.4800          89.960
5.5000          89.959
5.5200          89.958
5.5400          89.957
5.5600          89.956
5.5800          89.955
5.6000          89.954
5.6200          89.953
5.6400          89.951
5.6600          89.950
5.6800          89.949
5.7000          89.948
5.7200          89.947
5.7400          89.945
5.7600          89.944
5.7800          89.943
5.8000          89.942
5.8200          89.940
5.8400          89.938
5.8600          89.937
5.8800          89.935
5.9000          89.934
5.9200          89.932
5.9400          89.930
5.9600          89.928
5.9800          89.927
6.0000          89.925
6.0200          89.923
6.0400          89.920
6.0600          89.918
6.0800          89.916
6.1000          89.914
6.1200          89.911
6.1400          89.908
6.1600          89.905
6.1800          89.903
6.2000          89.900
6.2200          89.896
6.2400          89.893
6.2600          89.889
6.2800          89.885
6.3000          89.882
6.3200          89.877
6.3400          89.872
6.3600          89.867
6.3800          89.862
6.4000          89.857
6.4200          89.851
6.4400          89.844
6.4600          89.837
6.4800          89.831
6.5000          89.824
6.5200          89.815
6.5400          89.806
6.5600          89.797
6.5800          89.788
6.6000          89.778
6.6200          89.766
6.6400          89.754
6.6600          89.742
6.6800          89.729
6.7000          89.717
6.7200          89.701
6.7400          89.685
6.7600          89.669
6.7800          89.653
6.8000          89.637
6.8200          89.616
6.8400          89.596
6.8600          89.575
6.8800          89.555
6.9000          89.535
6.9200          89.509
6.9400          89.483
6.9600          89.458
6.9800          89.432
7.0000          89.407
7.0200          89.375
7.0400          89.344
7.0600          89.312
7.0800          89.281
7.1000          89.250
7.1200          89.212
7.1400          89.174
7.1600          89.135
7.1800          89.097
7.2000          89.060
7.2200          89.014
7.2400          88.968
7.2600          88.923
7.2800          88.878
7.3000          88.832
7.3200          88.778
7.3400          88.725
7.3600          88.671
7.3800          88.618
7.4000          88.564
7.4200          88.501
7.4400          88.439
7.4600          88.376
7.4800          88.314
7.5000          88.252
7.5200          88.179
7.5400          88.107
7.5600          88.035
7.5800          87.964
7.6000          87.892
7.6200          87.809
7.6400          87.727
7.6600          87.645
7.6800          87.564
7.7000          87.482
7.7200          87.389
7.7400          87.297
7.7600          87.205
7.7800          87.113
7.8000          87.021
7.8200          86.918
7.8400          86.815
7.8600          86.713
7.8800          86.611
7.9000          86.509
7.9200          86.397
7.9400          86.285
7.9600          86.173
7.9800          86.062
8.0000          85.951
8.0200          85.830
8.0400          85.710
8.0600          85.590
8.0800          85.471
8.1000          85.352
8.1200          85.225
8.1400          85.098
8.1600          84.971
8.1800          84.846
8.2000          84.720
8.2200          84.587
8.2399          84.454
8.2599          84.322
8.2799          84.191
8.2999          84.060
8.3199          83.921
8.3399          83.784
8.3599          83.647
8.3799          83.510
8.3999          83.375
8.4199          83.232
8.4399          83.090
8.4599          82.948
8.4799          82.808
8.4999          82.668
8.5200          82.521
8.5400          82.375
8.5600          82.230
8.5800          82.086
8.6000          81.943
8.6200          81.792
8.6400          81.643
8.6600          81.495
8.6800          81.347
8.7000          81.201
8.7200          81.047
8.7400          80.895
8.7600          80.744
8.7800          80.594
8.8000          80.444
8.8200          80.288
8.8400          80.134
8.8600          79.980
8.8800          79.827
8.9000          79.675
8.9200          79.518
8.9400          79.361
8.9600          79.205
8.9800          79.050
9.0000          78.896
9.0200          78.737
9.0400          78.578
9.0600          78.421
9.0800          78.264
9.1000          78.109
9.1200          77.948
9.1400          77.788
9.1600          77.629
9.1800          77.471
9.2000          77.314
9.2200          77.152
9.2400          76.991
9.2600          76.831
9.2800          76.672
9.3000          76.515
9.3200          76.351
9.3400          76.190
9.3600          76.029
9.3800          75.870
9.4000          75.711
9.4200          75.548
9.4400          75.385
9.4600          75.224
9.4800          75.064
9.5000          74.906
9.5200          74.742
9.5400          74.579
9.5600          74.418
9.5800          74.258
9.6000          74.099
9.6200          73.936
9.6400          73.773
9.6600          73.612
9.6800          73.452
9.7000          73.294
9.7200          73.130