% Model:              fiber_tube_129_full_run_with_err.mph
% Version:            COMSOL 5.4.0.246
% Date:               Jan 15 2019, 14:47
% Dimension:          1
% Nodes:              42795
% Expressions:        1
% Description:        Line graph
% r             Height
4.0000          0.86331
4.0200          0.86500
4.0400          0.86670
4.0600          0.86840
4.0800          0.87010
4.1000          0.87180
4.1200          0.87393
4.1400          0.87607
4.1600          0.87821
4.1800          0.88035
4.2000          0.88250
4.2200          0.88503
4.2400          0.88757
4.2600          0.89011
4.2800          0.89265
4.3000          0.89521
4.3200          0.89811
4.3400          0.90102
4.3600          0.90394
4.3800          0.90686
4.4000          0.90980
4.4200          0.91307
4.4400          0.91635
4.4600          0.91964
4.4800          0.92294
4.5000          0.92626
4.5200          0.92990
4.5400          0.93357
4.5600          0.93724
4.5800          0.94093
4.6000          0.94463
4.6200          0.94867
4.6400          0.95274
4.6600          0.95682
4.6800          0.96091
4.7000          0.96502
4.7200          0.96950
4.7400          0.97400
4.7600          0.97852
4.7800          0.98306
4.8000          0.98761
4.8200          0.99258
4.8400          0.99757
4.8600          1.0026
4.8800          1.0076
4.9000          1.0127
4.9200          1.0182
4.9400          1.0237
4.9600          1.0293
4.9800          1.0349
5.0000          1.0405
5.0200          1.0467
5.0400          1.0529
5.0600          1.0591
5.0800          1.0654
5.1000          1.0717
5.1200          1.0787
5.1400          1.0856
5.1600          1.0927
5.1800          1.0997
5.2000          1.1068
5.2200          1.1147
5.2400          1.1226
5.2600          1.1306
5.2800          1.1386
5.3000          1.1467
5.3200          1.1557
5.3400          1.1647
5.3600          1.1739
5.3800          1.1831
5.4000          1.1923
5.4200          1.2027
5.4400          1.2132
5.4600          1.2238
5.4800          1.2345
5.5000          1.2452
5.5200          1.2574
5.5400          1.2697
5.5600          1.2820
5.5800          1.2945
5.6000          1.3071
5.6200          1.3215
5.6400          1.3360
5.6600          1.3507
5.6800          1.3654
5.7000          1.3804
5.7200          1.3976
5.7400          1.4149
5.7600          1.4325
5.7800          1.4502
5.8000          1.4681
5.8200          1.4889
5.8400          1.5099
5.8600          1.5312
5.8800          1.5528
5.9000          1.5746
5.9200          1.6000
5.9400          1.6257
5.9600          1.6518
5.9800          1.6783
6.0000          1.7051
6.0200          1.7366
6.0400          1.7685
6.0600          1.8009
6.0800          1.8338
6.1000          1.8673
6.1200          1.9066
6.1400          1.9467
6.1600          1.9874
6.1800          2.0289
6.2000          2.0711
6.2200          2.1209
6.2400          2.1716
6.2600          2.2235
6.2800          2.2763
6.3000          2.3302
6.3200          2.3938
6.3400          2.4589
6.3600          2.5254
6.3800          2.5935
6.4000          2.6631
6.4200          2.7451
6.4400          2.8292
6.4600          2.9154
6.4800          3.0039
6.5000          3.0947
6.5200          3.2010
6.5400          3.3104
6.5600          3.4230
6.5800          3.5388
6.6000          3.6578
6.6200          3.7963
6.6400          3.9391
6.6600          4.0865
6.6800          4.2385
6.7000          4.3952
6.7200          4.5748
6.7400          4.7605
6.7600          4.9526
6.7800          5.1511
6.8000          5.3562
6.8200          5.5871
6.8400          5.8261
6.8600          6.0737
6.8800          6.3301
6.9000          6.5954
6.9200          6.8888
6.9400          7.1929
6.9600          7.5082
6.9800          7.8349
7.0000          8.1734
7.0200          8.5415
7.0400          8.9234
7.0600          9.3193
7.0800          9.7298
7.1000          10.155
7.1200          10.611
7.1400          11.083
7.1600          11.573
7.1800          12.080
7.2000          12.606
7.2200          13.161
7.2400          13.737
7.2600          14.332
7.2800          14.949
7.3000          15.588
7.3200          16.253
7.3400          16.941
7.3600          17.653
7.3800          18.389
7.4000          19.150
7.4200          19.932
7.4400          20.740
7.4600          21.575
7.4800          22.436
7.5000          23.326
7.5200          24.227
7.5400          25.157
7.5600          26.116
7.5800          27.104
7.6000          28.122
7.6200          29.141
7.6400          30.190
7.6600          31.269
7.6800          32.379
7.7000          33.520
7.7200          34.650
7.7400          35.809
7.7600          37.000
7.7800          38.223
7.8000          39.477
7.8200          40.707
7.8400          41.966
7.8600          43.257
7.8800          44.579
7.9000          45.933
7.9200          47.249
7.9400          48.595
7.9600          49.972
7.9800          51.379
8.0000          52.817
8.0200          54.205
8.0400          55.621
8.0600          57.066
8.0800          58.540
8.1000          60.045
8.1200          61.476
8.1400          62.935
8.1600          64.420
8.1800          65.933
8.2000          67.473
8.2200          68.920
8.2400          70.391
8.2600          71.886
8.2800          73.406
8.3000          74.951
8.3200          76.385
8.3400          77.840
8.3600          79.317
8.3800          80.815
8.4000          82.335
8.4200          83.733
8.4400          85.149
8.4600          86.583
8.4800          88.036
8.5000          89.508
8.5200          90.850
8.5400          92.208
8.5600          93.582
8.5800          94.970
8.6000          96.375
8.6200          97.648
8.6400          98.934
8.6600          100.23
8.6800          101.54
8.7000          102.87
8.7200          104.06
8.7400          105.27
8.7600          106.48
8.7800          107.71
8.8000          108.95
8.8200          110.06
8.8400          111.17
8.8600          112.30
8.8800          113.44
8.9000          114.58
8.9200          115.60
8.9400          116.63
8.9600          117.67
8.9800          118.71
9.0000          119.76
9.0200          120.69
9.0400          121.63
9.0600          122.58
9.0800          123.53
9.1000          124.48
9.1200          125.33
9.1400          126.18
9.1600          127.03
9.1800          127.89
9.2000          128.75
9.2200          129.51
9.2400          130.28
9.2600          131.04
9.2800          131.81
9.3000          132.58
9.3200          133.26
9.3400          133.94
9.3600          134.62
9.3800          135.31
9.4000          135.99
9.4200          136.59
9.4400          137.19
9.4600          137.79
9.4800          138.39
9.5000          138.99
9.5200          139.51
9.5400          140.03
9.5600          140.55
9.5800          141.07
9.6000          141.60
9.6200          142.04
9.6400          142.49
9.6600          142.93
9.6800          143.38
9.7000          143.83
9.7200          144.20
9.7400          144.57
9.7600          144.95
9.7800          145.32
9.8000          145.70
9.8200          146.01
9.8400          146.31
9.8600          146.62
9.8800          146.93
9.9000          147.23
9.9200          147.47
9.9400          147.72
9.9600          147.96
9.9800          148.20
10.000          148.44
10.020          148.62
10.040          148.80
10.060          148.98
10.080          149.16
10.100          149.34
10.120          149.46
10.140          149.58
10.160          149.70
10.180          149.83
10.200          149.95
10.220          150.01
10.240          150.08
10.260          150.14
10.280          150.21
10.300          150.27
10.320          150.28
10.340          150.29
10.360          150.31
10.380          150.32
10.400          150.33
10.420          150.29
10.440          150.25
10.460          150.21
10.480          150.17
10.500          150.13
10.520          150.04
10.540          149.95
10.560          149.87
10.580          149.78
10.600          149.69
10.620          149.56
10.640          149.42
10.660          149.29
10.680          149.15
10.700          149.02
10.720          148.84
10.740          148.66
10.760          148.48
10.780          148.30
10.800          148.13
10.820          147.90
10.840          147.68
10.860          147.46
10.880          147.24
10.900          147.02
10.920          146.76
10.940          146.49
10.960          146.23
10.980          145.97
11.000          145.71
11.020          145.41
11.040          145.11
11.060          144.81
11.080          144.51
11.100          144.21
11.120          143.87
11.140          143.53
11.160          143.19
11.180          142.85
11.200          142.52
11.220          142.14
11.240          141.76
11.260          141.39
11.280          141.02
11.300          140.65
11.320          140.23
11.340          139.82
11.360          139.42
11.380          139.01
11.400          138.60
11.420          138.16
11.440          137.71
11.460          137.27
11.480          136.83
11.500          136.39
11.520          135.92
11.540          135.44
11.560          134.97
11.580          134.50
11.600          134.03
11.620          133.52
11.640          133.01
11.660          132.50
11.680          132.00
11.700          131.50
11.720          130.96
11.740          130.42
11.760          129.89
11.780          129.36
11.800          128.83
11.820          128.26
11.840          127.69
11.860          127.13
11.880          126.57
11.900          126.01
11.920          125.41
11.940          124.82
11.960          124.22
11.980          123.64
12.000          123.05
12.020          122.42
12.040          121.80
12.060          121.18
12.080          120.57
12.100          119.95
12.120          119.30
12.140          118.65
12.160          118.01
12.180          117.36
12.200          116.72
12.220          116.05
12.240          115.37
12.260          114.70
12.280          114.03
12.300          113.37
12.320          112.66
12.340          111.96
12.360          111.26
12.380          110.57
12.400          109.88
12.420          109.15
12.440          108.43
12.460          107.71
12.480          106.99
12.500          106.28
12.520          105.52
12.540          104.77
12.560          104.03
12.580          103.28
12.600          102.55
12.620          101.77
12.640          101.00
12.660          100.23
12.680          99.464
12.700          98.705
12.720          97.903
12.740          97.106
12.760          96.315
12.780          95.530
12.800          94.750
12.820          93.925
12.840          93.106
12.860          92.293
12.880          91.486
12.900          90.686
12.920          89.839
12.940          89.000
12.960          88.167
12.980          87.340
13.000          86.521
13.020          85.655
13.040          84.796
13.060          83.944
13.080          83.100
13.100          82.263
13.120          81.380
13.140          80.504
13.160          79.637
13.180          78.777
13.200          77.925
13.220          77.028
13.240          76.140
13.260          75.260
13.280          74.388
13.300          73.525
13.320          72.619
13.340          71.722
13.360          70.835
13.380          69.956
13.400          69.086
13.420          68.176
13.440          67.276
13.460          66.386
13.480          65.505
13.500          64.634
13.520          63.720
13.540          62.817
13.560          61.924
13.580          61.042
13.600          60.170
13.620          59.254
13.640          58.350
13.660          57.457
13.680          56.575
13.700          55.704
13.720          54.792
13.740          53.891
13.760          53.003
13.780          52.127
13.800          51.262
13.820          50.361
13.840          49.472
13.860          48.596
13.880          47.732
13.900          46.881
13.920          46.000
13.940          45.132
13.960          44.277
13.980          43.436
14.000          42.607
14.020          41.755
14.040          40.917
14.060          40.093
14.080          39.282
14.100          38.484
14.120          37.671
14.140          36.872
14.160          36.087
14.180          35.315
14.200          34.556
14.220          33.789
14.240          33.036
14.260          32.296
14.280          31.570
14.300          30.857
14.320          30.142
14.340          29.441
14.360          28.752
14.380          28.077
14.400          27.414
14.420          26.755
14.440          26.108
14.460          25.475
14.480          24.853
14.500          24.244
14.520          23.642
14.540          23.052
14.560          22.474
14.580          21.908
14.600          21.353
14.620          20.809
14.640          20.275
14.660          19.753
14.680          19.241
14.700          18.741
14.720          18.252
14.740          17.773
14.760          17.305
14.780          16.846
14.800          16.398
14.820          15.962
14.840          15.535
14.860          15.118
14.880          14.710
14.900          14.311
14.920          13.924
14.940          13.546
14.960          13.177
14.980          12.816
15.000          12.463
15.020          12.122
15.040          11.788
15.060          11.463
15.080          11.144
15.100          10.833
15.120          10.534
15.140          10.241
15.160          9.9552
15.180          9.6758
15.200          9.4030
15.220          9.1408
15.240          8.8846
15.260          8.6344
15.280          8.3900
15.300          8.1514
15.320          7.9225
15.340          7.6989
15.360          7.4806
15.380          7.2674
15.400          7.0593
15.420          6.8599
15.440          6.6652
15.460          6.4751
15.480          6.2895
15.500          6.1083
15.520          5.9350
15.540          5.7657
15.560          5.6005
15.580          5.4393
15.600          5.2819
15.620          5.1314
15.640          4.9845
15.660          4.8411
15.680          4.7012
15.700          4.5647
15.720          4.4342
15.740          4.3069
15.760          4.1826
15.780          4.0614
15.800          3.9431
15.820          3.8301
15.840          3.7198
15.860          3.6122
15.880          3.5072
15.900          3.4048
15.920          3.3070
15.940          3.2116
15.960          3.1185
15.980          3.0277
16.000          2.9391
16.020          2.8546
16.040          2.7721
16.060          2.6916
16.080          2.6131
16.100          2.5365
16.120          2.4635
16.140          2.3922
16.160          2.3227
16.180          2.2549
16.200          2.1888
16.220          2.1257
16.240          2.0642
16.260          2.0041
16.280          1.9456
16.300          1.8885
16.320          1.8341
16.340          1.7810
16.360          1.7292
16.380          1.6787
16.400          1.6294
16.420          1.5824
16.440          1.5366
16.460          1.4919
16.480          1.4483
16.500          1.4058
16.520          1.3653
16.540          1.3258
16.560          1.2873
16.580          1.2497
16.600          1.2130
16.620          1.1781
16.640          1.1440
16.660          1.1107
16.680          1.0783
16.700          1.0467
16.720          1.0165
16.740          0.98712
16.760          0.95844
16.780          0.93048
16.800          0.90321
16.820          0.87721
16.840          0.85185
16.860          0.82711
16.880          0.80300
16.900          0.77949
16.920          0.75706
16.940          0.73518
16.960          0.71385
16.980          0.69306
17.000          0.67278
17.020          0.65344
17.040          0.63457
17.060          0.61618
17.080          0.59824
17.100          0.58075
17.120          0.56407
17.140          0.54780
17.160          0.53193
17.180          0.51647
17.200          0.50139
17.220          0.48700
17.240          0.47296
17.260          0.45928
17.280          0.44594
17.300          0.43293
17.320          0.42052
17.340          0.40842
17.360          0.39662
17.380          0.38511
17.400          0.37389
17.420          0.36319
17.440          0.35275
17.460          0.34257
17.480          0.33264
17.500          0.32297
17.520          0.31373
17.540          0.30473
17.560          0.29594
17.580          0.28738
17.600          0.27903
17.620          0.27107
17.640          0.26329
17.660          0.25572
17.680          0.24833
17.700          0.24113
17.720          0.23425
17.740          0.22755
17.760          0.22101
17.780          0.21463
17.800          0.20842
17.820          0.20248
17.840          0.19670
17.860          0.19105
17.880          0.18555
17.900          0.18019
17.920          0.17506
17.940          0.17007
17.960          0.16520
17.980          0.16045
18.000          0.15582
18.020          0.15139
18.040          0.14708
18.060          0.14287
18.080          0.13877
18.100          0.13477
18.120          0.13095
18.140          0.12723
18.160          0.12360
18.180          0.12005
18.200          0.11660
18.220          0.11330
18.240          0.11008
18.260          0.10694
18.280          0.10388
18.300          0.10090
18.320          0.098047
18.340          0.095266
18.360          0.092554
18.380          0.089910
18.400          0.087332
18.420          0.084866
18.440          0.082462
18.460          0.080118
18.480          0.077832
18.500          0.075604
18.520          0.073472
18.540          0.071394
18.560          0.069367
18.580          0.067390
18.600          0.065464
18.620          0.063620
18.640          0.061822
18.660          0.060069
18.680          0.058359
18.700          0.056693
18.720          0.055098
18.740          0.053542
18.760          0.052025
18.780          0.050547
18.800          0.049105
18.820          0.047724
18.840          0.046378
18.860          0.045065
18.880          0.043785
18.900          0.042537
18.920          0.041342
18.940          0.040176
18.960          0.039040
18.980          0.037932
19.000          0.036852
19.020          0.035816
19.040          0.034807
19.060          0.033823
19.080          0.032863
19.100          0.031928
19.120          0.031031
19.140          0.030156
19.160          0.029304
19.180          0.028472
19.200          0.027662
19.220          0.026885
19.240          0.026127
19.260          0.025388
19.280          0.024668
19.300          0.023966
19.320          0.023292
19.340          0.022635
19.360          0.021995
19.380          0.021370
19.400          0.020762
19.420          0.020177
19.440          0.019608
19.460          0.019053
19.480          0.018511
19.500          0.017984
19.520          0.017477
19.540          0.016983
19.560          0.016501
19.580          0.016032
19.600          0.015574
19.620          0.015135
19.640          0.014706
19.660          0.014288
19.680          0.013881
19.700          0.013484
19.720          0.013103
19.740          0.012731
19.760          0.012369
19.780          0.012015
19.800          0.011671
19.820          0.011340
19.840          0.011017
19.860          0.010703
19.880          0.010396
19.900          0.010097
19.920          0.0098098
19.940          0.0095296
19.960          0.0092565
19.980          0.0089905
20.000          0.0087312
20.020          0.0084816
20.040          0.0082384
20.060          0.0080014
20.080          0.0077705
20.100          0.0075455
20.120          0.0073288
20.140          0.0071176
20.160          0.0069118
20.180          0.0067114
20.200          0.0065162
20.220          0.0063280
20.240          0.0061446
20.260          0.0059660
20.280          0.0057920
20.300          0.0056226
20.320          0.0054592
20.340          0.0053000
20.360          0.0051449
20.380          0.0049939
20.400          0.0048469
20.420          0.0047049
20.440          0.0045667
20.460          0.0044321
20.480          0.0043011
20.500          0.0041735
20.520          0.0040502
20.540          0.0039302
20.560          0.0038134
20.580          0.0036997
20.600          0.0035890
20.620          0.0034820
20.640          0.0033778
20.660          0.0032764
20.680          0.0031778
20.700          0.0030818
20.720          0.0029889
20.740          0.0028984
20.760          0.0028105
20.780          0.0027249
20.800          0.0026417
20.820          0.0025610
20.840          0.0024825
20.860          0.0024062
20.880          0.0023321
20.900          0.0022599
20.920          0.0021899
20.940          0.0021218
20.960          0.0020557
20.980          0.0019914
21.000          0.0019289
21.020          0.0018682
21.040          0.0018091
21.060          0.0017518
21.080          0.0016961
21.100          0.0016420
21.120          0.0015893
21.140          0.0015381
21.160          0.0014885
21.180          0.0014402
21.200          0.0013934
21.220          0.0013477
21.240          0.0013034
21.260          0.0012604
21.280          0.0012187
21.300          0.0011782
21.320          0.0011386
21.340          0.0011003
21.360          0.0010630
21.380          0.0010270
21.400          9.9202E-4
21.420          9.5775E-4
21.440          9.2455E-4
21.460          8.9239E-4
21.480          8.6125E-4
21.500          8.3109E-4
21.520          8.0143E-4
21.540          7.7274E-4
21.560          7.4498E-4
21.580          7.1812E-4
21.600          6.9214E-4
21.620          6.6651E-4
21.640          6.4174E-4
21.660          6.1781E-4
21.680          5.9469E-4
21.700          5.7235E-4
21.720          5.5023E-4
21.740          5.2889E-4
21.760          5.0831E-4
21.780          4.8845E-4
21.800          4.6929E-4
21.820          4.5025E-4
21.840          4.3190E-4
21.860          4.1424E-4
21.880          3.9724E-4
21.900          3.8087E-4
21.920          3.6451E-4
21.940          3.4880E-4
21.960          3.3370E-4
21.980          3.1920E-4
22.000          3.0528E-4
22.020          2.9130E-4
22.040          2.7790E-4
22.060          2.6507E-4
22.080          2.5278E-4
22.100          2.4100E-4
22.120          2.2912E-4
22.140          2.1778E-4
22.160          2.0695E-4
22.180          1.9661E-4
22.200          1.8674E-4
22.220          1.7674E-4
22.240          1.6722E-4
22.260          1.5817E-4
22.280          1.4957E-4
22.300          1.4140E-4
22.320          1.3307E-4
22.340          1.2520E-4
22.360          1.1775E-4
22.380          1.1070E-4
22.400          1.0404E-4
22.420          9.7233E-5
22.440          9.0831E-5
22.460          8.4816E-5
22.480          7.9167E-5
22.500          7.3864E-5
22.520          6.8424E-5
22.540          6.3353E-5
22.560          5.8628E-5
22.580          5.4227E-5
22.600          5.0131E-5
22.620          4.5928E-5
22.640          4.2050E-5
22.660          3.8473E-5
22.680          3.5178E-5
22.700          3.2143E-5
22.720          2.9037E-5
22.740          2.6209E-5
22.760          2.3635E-5
22.780          2.1295E-5
22.800          1.9170E-5
22.820          1.7010E-5
22.840          1.5076E-5
22.860          1.3346E-5
22.880          1.1800E-5
22.900          1.0420E-5
22.920          9.0308E-6
22.940          7.8137E-6
22.960          6.7493E-6
22.980          5.8199E-6
23.000          5.0099E-6
4.0000          1.0041
4.0200          1.0062
4.0400          1.0083
4.0600          1.0104
4.0800          1.0125
4.1000          1.0146
4.1200          1.0172
4.1400          1.0198
4.1600          1.0224
4.1800          1.0250
4.2000          1.0276
4.2200          1.0307
4.2400          1.0338
4.2600          1.0369
4.2800          1.0400
4.3000          1.0431
4.3200          1.0466
4.3400          1.0502
4.3600          1.0537
4.3800          1.0573
4.4000          1.0609
4.4200          1.0649
4.4400          1.0689
4.4600          1.0729
4.4800          1.0769
4.5000          1.0810
4.5200          1.0854
4.5400          1.0899
4.5600          1.0944
4.5800          1.0989
4.6000          1.1034
4.6200          1.1084
4.6400          1.1134
4.6600          1.1184
4.6800          1.1234
4.7000          1.1284
4.7200          1.1340
4.7400          1.1395
4.7600          1.1451
4.7800          1.1506
4.8000          1.1563
4.8200          1.1624
4.8400          1.1686
4.8600          1.1748
4.8800          1.1810
4.9000          1.1872
4.9200          1.1941
4.9400          1.2010
4.9600          1.2079
4.9800          1.2148
5.0000          1.2218
5.0200          1.2295
5.0400          1.2373
5.0600          1.2451
5.0800          1.2529
5.1000          1.2607
5.1200          1.2695
5.1400          1.2782
5.1600          1.2870
5.1800          1.2959
5.2000          1.3048
5.2200          1.3147
5.2400          1.3247
5.2600          1.3348
5.2800          1.3449
5.3000          1.3551
5.3200          1.3666
5.3400          1.3781
5.3600          1.3897
5.3800          1.4014
5.4000          1.4132
5.4200          1.4265
5.4400          1.4400
5.4600          1.4535
5.4800          1.4672
5.5000          1.4809
5.5200          1.4966
5.5400          1.5124
5.5600          1.5284
5.5800          1.5445
5.6000          1.5607
5.6200          1.5794
5.6400          1.5983
5.6600          1.6173
5.6800          1.6365
5.7000          1.6560
5.7200          1.6784
5.7400          1.7012
5.7600          1.7241
5.7800          1.7474
5.8000          1.7709
5.8200          1.7983
5.8400          1.8260
5.8600          1.8541
5.8800          1.8826
5.9000          1.9114
5.9200          1.9451
5.9400          1.9794
5.9600          2.0141
5.9800          2.0494
6.0000          2.0852
6.0200          2.1272
6.0400          2.1700
6.0600          2.2135
6.0800          2.2578
6.1000          2.3028
6.1200          2.3559
6.1400          2.4099
6.1600          2.4651
6.1800          2.5213
6.2000          2.5786
6.2200          2.6462
6.2400          2.7154
6.2600          2.7860
6.2800          2.8582
6.3000          2.9320
6.3200          3.0191
6.3400          3.1084
6.3600          3.1998
6.3800          3.2936
6.4000          3.3896
6.4200          3.5026
6.4400          3.6187
6.4600          3.7380
6.4800          3.8607
6.5000          3.9867
6.5200          4.1340
6.5400          4.2859
6.5600          4.4424
6.5800          4.6037
6.6000          4.7700
6.6200          4.9622
6.6400          5.1610
6.6600          5.3663
6.6800          5.5785
6.7000          5.7977
6.7200          6.0468
6.7400          6.3047
6.7600          6.5718
6.7800          6.8483
6.8000          7.1345
6.8200          7.4537
6.8400          7.7847
6.8600          8.1279
6.8800          8.4836
6.9000          8.8522
6.9200          9.2564
6.9400          9.6757
6.9600          10.111
6.9800          10.562
7.0000          11.030
7.0200          11.534
7.0400          12.057
7.0600          12.600
7.0800          13.163
7.1000          13.747
7.1200          14.367
7.1400          15.009
7.1600          15.676
7.1800          16.366
7.2000          17.081
7.2200          17.829
7.2400          18.603
7.2600          19.405
7.2800          20.235
7.3000          21.094
7.3200          21.979
7.3400          22.894
7.3600          23.840
7.3800          24.817
7.4000          25.827
7.4200          26.851
7.4400          27.909
7.4600          29.000
7.4800          30.126
7.5000          31.286
7.5200          32.447
7.5400          33.642
7.5600          34.873
7.5800          36.139
7.6000          37.443
7.6200          38.729
7.6400          40.050
7.6600          41.407
7.6800          42.801
7.7000          44.232
7.7200          45.626
7.7400          47.056
7.7600          48.520
7.7800          50.021
7.8000          51.559
7.8200          53.043
7.8400          54.560
7.8600          56.111
7.8800          57.697
7.9000          59.318
7.9200          60.870
7.9400          62.453
7.9600          64.068
7.9800          65.716
8.0000          67.397
8.0200          68.989
8.0400          70.609
8.0600          72.259
8.0800          73.939
8.1000          75.649
8.1200          77.245
8.1400          78.867
8.1600          80.516
8.1800          82.191
8.2000          83.892
8.2200          85.462
8.2400          87.054
8.2600          88.668
8.2800          90.306
8.3000          91.967
8.3200          93.483
8.3400          95.018
8.3600          96.572
8.3800          98.145
8.4000          99.738
8.4200          101.18
8.4400          102.64
8.4600          104.11
8.4800          105.60
8.5000          107.11
8.5200          108.46
8.5400          109.83
8.5600          111.21
8.5800          112.60
8.6000          114.01
8.6200          115.27
8.6400          116.53
8.6600          117.81
8.6800          119.10
8.7000          120.40
8.7200          121.56
8.7400          122.72
8.7600          123.89
8.7800          125.07
8.8000          126.26
8.8200          127.32
8.8400          128.38
8.8600          129.44
8.8800          130.52
8.9000          131.60
8.9200          132.55
8.9400          133.50
8.9600          134.47
8.9800          135.43
9.0000          136.40
9.0200          137.26
9.0400          138.11
9.0600          138.97
9.0800          139.84
9.1000          140.70