% Model:              2D_fiberInterAct_fullPore_5_ID0-21.mph
% Version:            COMSOL 5.4.0.346
% Date:               May 30 2019, 14:21
% Dimension:          1
% Nodes:              22
% Expressions:        1
% Description:        Global
% x             Height
0.0000          0.80758
1.0000          0.80224
2.0000          0.75057
3.0000          0.77171
4.0000          0.81326
5.0000          0.84407
6.0000          0.81260
7.0000          0.77464
8.0000          0.69928
9.0000          0.85110
10.000          0.83761
11.000          0.81375
12.000          0.66891
13.000          0.68956
14.000          0.67691
15.000          0.75705
16.000          0.73664
17.000          0.68237
18.000          0.83363
19.000          0.82800
20.000          0.77785
21.000          0.87467
